! Sonnet Data File
! From: sonnet Version : 18.53-Lite
! From Emgraph Data: 
! Data File Written: 09/16/2023 12:22:03
!< HDATE 09/16/2023 12:20:47
!< MDATE 09/16/2023 12:20:47
# GHZ S MA R 50.00000
0.100000000000000 0.1306873870725 -102.9209131499 0.9907980725308 -12.64788587726 0.9907980725305 -12.64788587725 0.1306873870724 -102.9209131710
0.120000000000000 0.1558505237457 -105.4374018715 0.9871027562226 -15.13906132269 0.9871027562226 -15.13906132269 0.1558690546887 -105.4292286857
0.140000000000000 0.1805132636984 -107.9057512740 0.9827815261423 -17.61071009428 0.9827815261423 -17.61071009428 0.1805408888561 -107.8981603654
0.160000000000000 0.2046363699426 -110.3409706365 0.9779008031204 -20.05865745951 0.9779008031204 -20.05865745951 0.2046580194398 -110.3372387765
0.180000000000000 0.2281690810275 -112.7505112067 0.9725324804760 -22.47997079244 0.9725324804759 -22.47997079244 0.2281690810258 -112.7505113323
0.200000000000000 0.2510554122456 -115.1368622210 0.9667468676001 -24.87273752795 0.9667468676001 -24.87273752795 0.2510217208448 -115.1386643152
0.220000000000000 0.2732407484354 -117.4993631981 0.9606083307315 -27.23576278082 0.9606083307315 -27.23576278082 0.2731677420398 -117.5004484022
0.240000000000000 0.2946775295638 -119.8356625338 0.9541740147646 -29.56826112013 0.9541740147646 -29.56826112013 0.2945669443028 -119.8337950923
0.260000000000000 0.3153288257103 -122.1428814012 0.9474949313954 -31.86962793645 0.9474949313954 -31.86962793645 0.3151888171667 -122.1366323037
0.280000000000000 0.3351693995839 -124.4184070938 0.9406179855853 -34.13932467600 0.9406179855853 -34.13932467600 0.3350122210963 -124.4073346636
0.300000000000000 0.3541848020956 -126.6603034882 0.9335877875654 -36.37685654142 0.9335877875654 -36.37685654142 0.3540239660848 -126.6448553931
0.320000000000000 0.3723694339316 -128.8674214164 0.9264477687327 -38.58180128268 0.9264477687327 -38.58180128268 0.3722171929532 -128.8486700365
0.340000000000000 0.3897243778171 -131.0393264956 0.9192405992082 -40.75385482025 0.9192405992082 -40.75385482025 0.3895900400183 -131.0186540034
0.360000000000000 0.4062554933715 -133.1761462060 0.9120080972997 -42.89287322365 0.9120080972997 -42.89287322365 0.4061447005869 -133.1549651811
0.380000000000000 0.4219719769424 -135.2784048971 0.9047908496021 -44.99890152393 0.9047908496021 -44.99890152393 0.4218867921134 -135.2579581853
0.400000000000000 0.4368853896153 -137.3468837802 0.8976277249275 -47.07218687728 0.8976277249275 -47.07218687728 0.4368249139664 -137.3281319846
0.420000000000000 0.4510090525396 -139.3825193056 0.8905554102762 -49.11317764601 0.8905554102762 -49.11317764601 0.4509702898399 -139.3661029343
0.440000000000000 0.4643576798539 -141.3863387231 0.8836080423629 -51.12251182735 0.8836080423629 -51.12251182735 0.4643364274795 -141.3725934821
0.460000000000000 0.4769471361724 -143.3594247634 0.8768169642936 -53.10099862970 0.8768169642936 -53.10099862970 0.4769387631815 -143.3484283695
0.480000000000000 0.4887942403030 -145.3028998232 0.8702106075935 -55.04959653091 0.8702106075935 -55.04959653091 0.4887942843613 -145.2945327207
0.500000000000000 0.4999165714197 -147.2179213184 0.8638144836456 -56.96939037139 0.8638144836456 -56.96939037139 0.4999211388517 -147.2119288793
0.520000000000000 0.5103322600085 -149.1056821813 0.8576512621311 -58.86156924981 0.8576512621311 -58.86156924981 0.5103382459304 -149.1017307738
0.540000000000000 0.5200597621797 -150.9674127653 0.8517409136510 -60.72740632650 0.8517409136510 -60.72740632650 0.5200649242899 -150.9651358558
0.560000000000000 0.5291176244757 -152.8043822490 0.8461008965273 -62.56824110796 0.8461008965273 -62.56824110796 0.5291205494431 -152.8034153557
0.580000000000000 0.5375242501951 -154.6178988577 0.8407463715132 -64.38546433746 0.8407463715128 -64.38546433746 0.5375242500117 -154.6179038362
0.600000000000000 0.5452976796010 -156.4093088079 0.8356904305798 -66.18050523940 0.8356904305798 -66.18050523940 0.5452946500083 -156.4099888423
0.620000000000000 0.5524553948570 -158.1799939012 0.8309443257903 -67.95482067789 0.8309443257903 -67.95482067789 0.5524496610331 -158.1811009132
0.640000000000000 0.5590141542795 -159.9313675165 0.8265176837669 -69.70988597323 0.8265176837669 -69.70988597323 0.5590063215948 -159.9327037273
0.660000000000000 0.5649898515025 -161.6648690107 0.8224186959256 -71.44718756378 0.8224186959256 -71.44718756378 0.5649806722806 -161.6662842711
0.680000000000000 0.5703973912915 -163.3819573166 0.8186542850729 -73.16821783675 0.8186542850729 -73.16821783675 0.5703876532603 -163.3833436686
0.700000000000000 0.5752505791078 -165.0841049835 0.8152302563296 -74.87447198352 0.8152302563296 -74.87447198352 0.5752410179572 -165.0853897032
0.720000000000000 0.5795620286252 -166.7727934462 0.8121514379755 -76.56744618464 0.8121514379755 -76.56744618464 0.5795532651163 -166.7739315375
0.740000000000000 0.5833430919027 -168.4495094893 0.8094218109731 -78.24863638412 0.8094218109731 -78.24863638412 0.5833355924317 -168.4504762919
0.760000000000000 0.5866038122040 -170.1157424610 0.8070446226302 -79.91953726734 0.8070446226302 -79.91953726734 0.5865978703695 -170.1165267931
0.780000000000000 0.5893528951106 -171.7729818675 0.8050224812176 -81.58164140271 0.8050224812176 -81.58164140271 0.5893486308521 -171.7735799434
0.800000000000000 0.5915976920026 -173.4227152177 0.8033574313923 -83.23643866173 0.8033574313923 -83.23643866173 0.5915950644102 -173.4231254769
0.820000000000000 0.5933441907112 -175.0664262014 0.8020510127978 -84.88541602180 0.8020510127978 -84.88541602180 0.5933430206396 -175.0666451117
0.840000000000000 0.5945970101631 -176.7055933658 0.8011043053282 -86.53005775094 0.8011043053292 -86.53005775102 0.5945970091899 -176.7056122179
0.860000000000000 0.5953593980027 -178.3416894138 0.8005179640351 -88.17184585539 0.8005179640351 -88.17184585539 0.5953602008709 -178.3414920768
0.880000000000000 0.5956332314069 -179.9761810965 0.8002922450168 -89.81226061687 0.8002922450168 -89.81226061687 0.5956344297009 -179.9757426679
0.900000000000000 0.5954190214053 178.38947044044 0.8004270221830 -91.45278108189 0.8004270221830 -91.45278108189 0.5954201966632 178.39018419387
0.920000000000000 0.5947159203448 176.75380906116 0.8009217939747 -93.09488543843 0.8009217939747 -93.09488543843 0.5947166751929 176.75484159043
0.940000000000000 0.5935217317576 175.11538296794 0.8017756793063 -94.74005127570 0.8017756793063 -94.74005127570 0.5935217179325 175.11678627924
0.960000000000000 0.5918329218984 173.47274407962 0.8029874023279 -96.38975574076 0.8029874023279 -96.38975574076 0.5918318642993 173.47457763931
0.980000000000000 0.5896446326281 171.82444755056 0.8045552658919 -98.04547559354 0.8045552658919 -98.04547559354 0.5896423488070 171.82677686211
1.000000000000000 0.5869506958407 170.16905150306 0.8064771136692 -99.70868713937 0.8064771136692 -99.70868713937 0.5869471105826 170.17194644821
1.020000000000000 0.5837436501095 168.50511704643 0.8087502807925 -101.3808659964 0.8087502807925 -101.3808659964 0.5837388049669 168.50865007024
1.040000000000000 0.5800147606294 166.83120866155 0.8113715328009 -103.0634866391 0.8113715328009 -103.0634866391 0.5800088184501 166.83545286972
1.060000000000000 0.5757540438583 165.14589503751 0.8143369925936 -104.7580216467 0.8143369925936 -104.7580216467 0.5757472884796 165.15092226403
1.080000000000000 0.5709502985521 163.44775045380 0.8176420550899 -106.4659405782 0.8176420550899 -106.4659405782 0.5709431299376 163.45362934766
1.100000000000000 0.5655911451609 161.73535680804 0.8212812893477 -108.1887083852 0.8212812893477 -108.1887083852 0.5655840703287 161.74215097935
1.120000000000000 0.5596630758193 160.00730639499 0.8252483280185 -109.9277832724 0.8252483280185 -109.9277832724 0.5596566959640 160.01507265400
1.140000000000000 0.5531515174281 158.26220554998 0.8295357441991 -111.6846139043 0.8295357441991 -111.6846139043 0.5531465116746 158.27099226599
1.160000000000000 0.5460409105806 156.49867927691 0.8341349160033 -113.4606358605 0.8341349160033 -113.4606358605 0.5460380168363 156.50852487954
1.180000000000000 0.5383148073296 154.71537699066 0.8390358795044 -115.2572672313 0.8390358795044 -115.2572672313 0.5383148007215 154.72630863160
1.200000000000000 0.5299559910088 152.91097951412 0.8442271711138 -117.0759032527 0.8442271711138 -117.0759032527 0.5299596604132 152.92301190482
1.220000000000000 0.5209466214958 151.08420748291 0.8496956609675 -118.9179098769 0.8496956609675 -118.9179098769 0.5209547446870 151.09734192141
1.240000000000000 0.5112684094146 149.23383132650 0.8554263794933 -120.7846161826 0.8554263794933 -120.7846161826 0.5112817273848 149.24805492512
1.260000000000000 0.5009028227948 147.35868301359 0.8614023400407 -122.6773055384 0.8614023400407 -122.6773055384 0.5009220138244 147.37396813843
1.280000000000000 0.4898313295984 145.45766977487 0.8676043612672 -124.5972054461 0.8676043612672 -124.5972054461 0.4898569836879 145.47397370711
1.300000000000000 0.4780356792597 143.52979004999 0.8740108938909 -126.5454760122 0.8740108938909 -126.5454760122 0.4780682735694 143.54705487863
1.320000000000000 0.4654982259039 141.57415195439 0.8805978574214 -128.5231970220 0.8805978574214 -128.5231970220 0.4655381018832 141.59230470872
1.340000000000000 0.4522022951895 139.58999463277 0.8873384935442 -130.5313536263 0.8873384935442 -130.5313536263 0.4522496381064 139.60894766156
1.360000000000000 0.4381325956848 137.57671297516 0.8942032439229 -132.5708206936 0.8942032439229 -132.5708206936 0.4381874172888 137.59636457673
1.380000000000000 0.4232756743244 135.53388634136 0.9011596612295 -134.6423459344 0.9011596612295 -134.6423459344 0.4233377993787 135.55412164493
1.400000000000000 0.4076204137412 133.46131220910 0.9081723631513 -136.7465319689 0.9081723631513 -136.7465319689 0.4076894711426 133.48200430208
1.420000000000000 0.3911585671381 131.35904609410 0.9152030398404 -138.8838175787 0.9152030398404 -138.8838175787 0.3912339862884 131.38005738225
1.440000000000000 0.3738853238458 129.22744979535 0.9222105256648 -141.0544584670 0.9222105256648 -141.0544584670 0.3739663368504 129.24863357230
1.460000000000000 0.3557998958764 127.06725118302 0.9291509460362 -143.2585079389 0.9291509460362 -143.2585079389 0.3558855460089 127.08845337214
1.480000000000000 0.3369061127169 124.87962070238 0.9359779494085 -145.4957980003 0.9359779494085 -145.4957980003 0.3369952694032 124.90068171599
1.500000000000000 0.3172130084818 122.66627312273 0.9426430331061 -147.7659214661 0.9426430331061 -147.7659214661 0.3173043888287 122.68702975983
1.520000000000000 0.2967353826127 120.42960897117 0.9490959693497 -150.0682157449 0.9490959693497 -150.0682157449 0.2968275792292 120.44989624165
1.540000000000000 0.2754943129090 118.17292084531 0.9552853346241 -152.4017490315 0.9552853346241 -152.4017490315 0.2755858274673 118.19257355909
1.560000000000000 0.2535175983134 115.90071015293 0.9611591413674 -154.7653096783 0.9611591413674 -154.7653096783 0.2536068799724 115.91956403279
1.580000000000000 0.2308401092874 113.61920022935 0.9666655659425 -157.1573995244 0.9666655659425 -157.1573995244 0.2309255967893 113.63709216609
1.600000000000000 0.2075040271317 111.33721674245 0.9717537611649 -159.5762319233 0.9717537611649 -159.5762319233 0.2075841930875 111.35398354286
1.620000000000000 0.1835589629887 109.06779788466 0.9763747356184 -162.0197351314 0.9763747356184 -162.0197351314 0.1836323586161 109.08327230298
1.640000000000000 0.1590619696328 106.83136773739 0.9804822760008 -164.4855615857 0.9804822760008 -164.4855615857 0.1591272679906 106.84536930425
1.660000000000000 0.1340775161610 104.66259606323 0.9840338833256 -166.9711034138 0.9840338833256 -166.9711034138 0.1341335516678 104.67491099023
1.680000000000000 0.1086776657622 102.62713767383 0.9869916895030 -169.4735142911 0.9869916895030 -169.4735142911 0.1087234672086 102.63747274254
1.700000000000000 0.0829433301240 100.87004063698 0.9893233181818 -171.9897374970 0.9893233181818 -171.9897374970 0.0829781422684 100.87790343548
1.720000000000000 0.0569706915123 99.797548264345 0.9910026532031 -174.5165397335 0.9910026532031 -174.5165397335 0.0569939699219 99.801857904435
1.740000000000000 0.0309145162721 101.17877372406 0.9920104798986 -177.0505499888 0.9920104798986 -177.0505499888 0.0309257995585 101.17593343728
1.760000000000000 0.0062558277980 137.15062673995 0.9923349688292 -179.5883024610 0.9923349688293 -179.5883024610 0.0062524212690 137.12171991742
1.780000000000000 0.0225206730328 -104.1126541063 0.9919721012324 177.87371952605 0.9919721012324 177.87371952605 0.0225298056326 -104.0866150098
1.800000000000000 0.0485035661458 -100.3264283623 0.9909256749010 175.33903416892 0.9909256749010 175.33903416892 0.0485237405282 -100.3117589148
1.820000000000000 0.0744975349556 -100.9516109625 0.9892070586838 172.81111146405 0.9892070586838 172.81111146405 0.0745271771046 -100.9411881981
1.840000000000000 0.1002799721613 -102.5523679044 0.9868350044753 170.29332930931 0.9868350044753 170.29332930931 0.1003176445036 -102.5444663883
1.860000000000000 0.1257458348669 -104.5158810060 0.9838351714840 167.78893072236 0.9838351714840 167.78893072236 0.1257899813807 -104.5097567396
1.880000000000000 0.1508114499943 -106.6460594146 0.9802394931538 165.30098505456 0.9802394931538 165.30098505456 0.1508604096350 -106.6412814096
1.900000000000000 0.1754032099145 -108.8597397858 0.9760854167375 162.83235417808 0.9760854167375 162.83235417808 0.1754552628615 -108.8560100751
1.920000000000000 0.1994554022055 -111.1149252059 0.9714150498892 160.38566436256 0.9714150498892 160.38566436256 0.1995088214895 -111.1120146542
1.940000000000000 0.2229097988275 -113.3876782434 0.9662742505604 157.96328427666 0.9662742505604 157.96328427666 0.2229629005881 -113.3853996009
1.960000000000000 0.2457156177872 -115.6630973410 0.9607116960185 155.56730926966 0.9607116960185 155.56730926966 0.2457668075419 -115.6612927593
1.980000000000000 0.2678295001898 -117.9312868047 0.9547779642558 153.19955182706 0.9547779642558 153.19955182706 0.2678773138170 -117.9298217234
2.000000000000000 0.2892153984850 -120.1853668900 0.9485246568561 150.86153786766 0.9485246568561 150.86153786766 0.2892585372521 -120.1841269791
2.020000000000000 0.3098443508367 -122.4204097267 0.9420035870654 148.55450836726 0.9420035870654 148.55450836726 0.3098817102171 -122.4192993768
2.040000000000000 0.3296941460090 -124.6328309681 0.9352660509205 146.27942566178 0.9352660509205 146.27942566178 0.3297248383302 -124.6317725887
2.060000000000000 0.3487488952082 -126.8200207968 0.9283621933097 144.03698369968 0.9283621933097 144.03698369968 0.3487722664047 -126.8189545346
2.080000000000000 0.3669985319976 -128.9801075579 0.9213404752082 141.82762147831 0.9213404752082 141.82762147831 0.3670141729089 -128.9789912284
2.100000000000000 0.3844382623990 -131.1117983401 0.9142472433321 139.65153890291 0.9142472433321 139.65153890291 0.3844460151687 -131.1106074582
2.120000000000000 0.4010679862525 -133.2142660905 0.9071263992966 137.50871434511 0.9071263992966 137.50871434511 0.4010679464513 -133.2129939378
2.140000000000000 0.4168917628504 -135.2870506905 0.9000195253962 135.39891807019 0.9000195253962 135.39891807019 0.4168841611512 -135.2856900850
2.160000000000000 0.4319172275849 -137.3300156013 0.8929654462750 133.32173262534 0.8929654462750 133.32173262534 0.4319023360130 -137.3285513662
2.180000000000000 0.4461549510680 -139.3433101223 0.8859997430602 131.27657832111 0.8859997430602 131.27657832111 0.4461331399592 -139.3417331327
2.200000000000000 0.4596179309963 -141.3273094826 0.8791550621812 129.26272838877 0.8791550621812 129.26272838877 0.4595896509742 -141.3256160094
2.220000000000000 0.4723210910228 -143.2825796384 0.8724611555930 127.27932683873 0.8724611555930 127.27932683873 0.4722868558515 -143.2807706688
2.240000000000000 0.4842808205063 -145.2098474252 0.8659449645190 125.32540530671 0.8659449645190 125.32540530671 0.4842411911175 -145.2079279749
2.260000000000000 0.4955145575798 -147.1099750152 0.8596307369738 123.39989871688 0.8596307369738 123.39989871688 0.4954701274846 -147.1079534448
2.280000000000000 0.5060404161897 -148.9839379445 0.8535401702615 121.50165965426 0.8535401702615 121.50165965426 0.5059917984010 -148.9818252918
2.300000000000000 0.5158768563415 -150.8328061705 0.8476925706903 119.62947139219 0.8476925706903 119.62947139219 0.5158246718644 -150.8306155085
2.320000000000000 0.5250423957266 -152.6577277516 0.8421050238352 117.78205956348 0.8421050238352 117.78205956348 0.5249872636206 -152.6554735786
2.340000000000000 0.5335553601558 -154.4599148168 0.8367925697529 115.95810249840 0.8367925697529 115.95810249840 0.5334978891247 -154.4576124850
2.360000000000000 0.5414336697325 -156.2406315539 0.8317683785549 114.15624027802 0.8317683785549 114.15624027802 0.5413744511649 -156.2382967403
2.380000000000000 0.5486946574280 -158.0011839809 0.8270439226659 112.37508257044 0.8270439226659 112.37508257044 0.5486342597891 -157.9988322034
2.400000000000000 0.5553549166220 -159.7429112943 0.8226291428997 110.61321532997 0.8226291428997 110.61321532997 0.5552938810763 -159.7405574745
2.420000000000000 0.5614301741977 -161.4671786107 0.8185326061875 108.86920644704 0.8185326061875 108.86920644704 0.5613690113350 -161.4648366848
2.440000000000000 0.5669351859118 -163.1753709358 0.8147616533780 107.14161044056 0.8147616533780 107.14161044056 0.5668743734423 -163.1730535123
2.460000000000000 0.5718836509524 -164.8688882080 0.8113225360126 105.42897228521 0.8113225360126 105.42897228521 0.5718236322348 -164.8666062741
2.480000000000000 0.5762881428379 -166.5491412826 0.8082205413655 103.72983046509 0.8082205413655 103.72983046509 0.5762293261062 -166.5469039560
2.500000000000000 0.5801600540740 -168.2175487270 0.8054601053394 102.04271934194 0.8054601053394 102.04271934194 0.5801028122316 -168.2153630539
2.520000000000000 0.5835095522647 -169.8755343149 0.8030449130307 100.36617092299 0.8030449130307 100.36617092299 0.5834542231178 -169.8734051127
2.540000000000000 0.5863455456515 -171.5245251120 0.8009779869430 98.698716108711 0.8009779869430 98.698716108711 0.5862924324610 -171.5224548548
2.560000000000000 0.5886756563311 -173.1659500565 0.7992617629303 97.038885496765 0.7992617629303 97.038885496765 0.5886250285647 -173.1639388029
2.580000000000000 0.5905061996693 -174.8012389436 0.7978981540169 95.385209814298 0.7978981540169 95.385209814298 0.5904582938427 -174.7992843063
2.600000000000000 0.5918421686850 -176.4318217312 0.7968886022640 93.736220046782 0.7968886022640 93.736220046782 0.5917971891845 -176.4299188847
2.620000000000000 0.5926872224246 -178.0591280851 0.7962341188544 92.090447328647 0.7962341188544 92.090447328647 0.5926453422096 -178.0572698140
2.640000000000000 0.5930436775835 -179.6845870899 0.7959353125365 90.446422658336 0.7959353125365 90.446422658336 0.5930050386702 -179.6827638737
2.660000000000000 0.5929125028599 178.69037294785 0.7959924065338 88.802676498788 0.7959924065338 88.802676498788 0.5928772164935 178.69217281267
2.680000000000000 0.5922933157499 177.06432467651 0.7964052439728 87.157738323459 0.7964052439728 87.157738323459 0.5922614621747 177.06611491905
2.700000000000000 0.5911843817107 175.43584192774 0.7971732818268 85.510136168006 0.7971732818268 85.510136168006 0.5911560094547 175.43763811012
2.720000000000000 0.5895826158422 173.80350006820 0.7982955733178 83.858396248617 0.7982955733178 83.858396248617 0.5895577404349 173.80531935945
2.740000000000000 0.5874835874568 172.16587654981 0.7997707386685 82.201042709669 0.7997707386685 82.201042709669 0.5874621895075 172.16773746689
2.760000000000000 0.5848815281396 170.52155173600 0.8015969240538 80.536597565878 0.8015969240538 80.536597565878 0.5848635507081 170.52347385296
2.780000000000000 0.5817693441352 168.86911008606 0.8037717485785 78.863580907253 0.8037717485785 78.863580907253 0.5817546893364 168.87111371223
2.800000000000000 0.5781386341432 167.20714178505 0.8062922391024 77.180511438900 0.8062922391024 77.180511438900 0.5781271589385 167.20924761292
2.820000000000000 0.5739797138627 165.53424491305 0.8091547527607 75.485907431788 0.8091547527607 75.485907431788 0.5739712250008 165.53647363619
2.840000000000000 0.5692816488878 163.84902825503 0.8123548870858 73.778288164831 0.8123548870858 73.778288164831 0.5692758969734 163.85140015592
2.860000000000000 0.5640322978270 162.15011486120 0.8158873777432 72.056175942719 0.8158873777432 72.056175942719 0.5640289705143 162.15264936788
2.880000000000000 0.5582183677967 160.43614647737 0.8197459840466 70.318098777459 0.8197459840466 70.318098777459 0.5582170821208 160.43886168662
2.900000000000000 0.5518254846995 158.70578897563 0.8239233626350 68.562593824243 0.8239233626350 68.562593824245 0.5518257785827 158.70870113847
2.920000000000000 0.5448380135998 156.95775066853 0.8284111172415 66.788202948922 0.8284111172415 66.788202948922 0.5448396206769 156.96086261300
2.940000000000000 0.5372394441925 155.19077566155 0.8331995109955 64.993490254413 0.8331995109955 64.993490254413 0.5372423275243 155.19407829980
2.960000000000000 0.5290127896902 153.40363975501 0.8382771265761 63.177055983480 0.8382771265761 63.177055983480 0.5290168771750 153.40712442280
2.980000000000000 0.5201404696623 151.59517251325 0.8436308827135 61.337533280634 0.8436308827135 61.337533280634 0.5201456552302 151.59883157883
3.000000000000000 0.5106044901903 149.76426869375 0.8492458754371 59.473596182555 0.8492458754371 59.473596182555 0.5106106361798 149.76809622577
3.020000000000000 0.5003866542539 147.90990162187 0.8551052179508 57.583968675610 0.8551052179508 57.583968675610 0.5003935950034 147.91389411135
3.040000000000000 0.4894688050449 146.03113882941 0.8611898825308 55.667434851827 0.8611898825308 55.667434851827 0.4894763516804 146.03529596115
3.060000000000000 0.4778331046338 144.12716035704 0.8674785485503 53.722850178153 0.8674785485503 53.722850178153 0.4778410509848 144.13148582651
3.080000000000000 0.4654623499872 142.19728023545 0.8739474614975 51.749153873223 0.8739474614975 51.749153873223 0.4654704794991 142.20178260997
3.100000000000000 0.4523403277080 140.24097182514 0.8805703086634 49.745382360669 0.8805703086634 49.745382360669 0.4523484211591 140.24566545273
3.120000000000000 0.4384522080266 138.25789793565 0.8873181179980 47.710683737470 0.8873181179980 47.710683737470 0.4384600517979 138.26280391294
3.140000000000000 0.4237849774663 136.24794700398 0.8941591874429 45.644333159246 0.8941591874429 45.644333159246 0.4237923720540 136.25309422628
3.160000000000000 0.4083279082223 134.21127715461 0.9010590527756 43.545749001110 0.9010590527756 43.545749001110 0.4083346766430 134.21670348969
3.180000000000000 0.3920730606195 132.14837080220 0.9079805026010 41.414509602249 0.9079805026010 41.414509602249 0.3920790563267 132.15412445539
3.200000000000000 0.3750158130502 130.06010377657 0.9148836494884 39.250370344669 0.9148836494884 39.250370344669 0.3750209269756 130.06624495410
3.220000000000000 0.3571554115966 127.94783506921 0.9217260662988 37.053280752245 0.9217260662988 37.053280752245 0.3571595779458 127.95443810483
3.240000000000000 0.3384955291897 125.81352678476 0.9284629963429 34.823401226699 0.9284629963429 34.823401226699 0.3384987296735 125.82068298325
3.260000000000000 0.3190448218452 123.65990976004 0.9350476450495 32.561118965213 0.9350476450495 32.561118965213 0.3190470880992 123.66773134984
3.280000000000000 0.2988174675055 121.49072053010 0.9414315591852 30.267062534034 0.9414315591852 30.267062534034 0.2988188815735 121.49934634136
3.300000000000000 0.2778336718303 119.31105369480 0.9475650972612 27.942114509177 0.9475650972612 27.942114509177 0.2778343647350 119.32065755652
3.320000000000000 0.2561201257265 117.12790813573 0.9533979915482 25.587421546000 0.9533979915482 25.587421546000 0.2561202743658 117.13871164711
3.340000000000000 0.2337104031073 114.95107302975 0.9588799981057 23.204401211785 0.9588799981057 23.204401211785 0.2337102260129 114.96336557957
3.360000000000000 0.2106452976225 112.79463969032 0.9639616265297 20.794744917493 0.9639616265297 20.794744917493 0.2106450505915 112.80881096802
3.380000000000000 0.1869731217183 110.67973623614 0.9685949359303 18.360416324232 0.9685949359303 18.360416324232 0.1869730951830 110.69633139185
3.400000000000000 0.1627500510804 108.63983148477 0.9727343782724 15.903644682272 0.9727343782724 15.903644682272 0.1627505728690 108.65965010012
3.420000000000000 0.1380407547810 106.73195555700 0.9763376650597 13.426912688764 0.9763376650597 13.426912688764 0.1380422062208 106.75624269994
3.440000000000000 0.1129200250175 105.06328419086 0.9793666288698 10.932938623798 0.9793666288698 10.932938623798 0.1129228903269 105.09413730084
3.460000000000000 0.0874778380540 103.86476615537 0.9817880479679 8.4246527373940 0.9817880479679 8.4246527373940 0.0874828469343 103.90612880389
3.480000000000000 0.0618384163272 103.74852628385 0.9835744005761 5.9051681021842 0.9835744005761 5.9051681021842 0.0618470104254 103.80915877194
3.500000000000000 0.0362636516130 107.04668833227 0.9847045157398 3.3777464028953 0.9847045157398 3.3777464028953 0.0362800949203 107.15236831730
3.520000000000000 0.0125787083455 134.51696046599 0.9851640902866 0.8457593857256 0.9851640902865 0.8457593857247 0.0126289911299 134.75174861627
3.540000000000000 0.0191956212369 -118.9285533294 0.9849480553609 -1.687240131801 0.9849480553609 -1.687240131801 0.0192294260376 -119.1298883415
3.560000000000000 0.0440714365749 -105.8285822880 0.9840598627996 -4.217676659705 0.9840598627996 -4.217676659705 0.0440859299737 -105.9295513172
3.580000000000000 0.0696999884988 -104.1079403158 0.9825089853731 -6.742119409503 0.9825089853731 -6.742119409503 0.0697085045935 -104.1754849968
3.600000000000000 0.0952729471167 -104.6680156123 0.9803121627210 -9.257216756100 0.9803121627210 -9.257216756100 0.0952782565442 -104.7197979929
3.620000000000000 0.1205973578044 -106.0463282174 0.9774929849079 -11.75973873233 0.9774929849079 -11.75973873233 0.1206004124978 -106.0890504379
3.640000000000000 0.1455635899964 -107.8018965118 0.9740813185048 -14.24661598779 0.9740813185048 -14.24661598779 0.1455647918717 -107.8387786634
3.660000000000000 0.1700873430264 -109.7554485835 0.9701126021387 -16.71497421316 0.9701126021387 -16.71497421316 0.1700868753382 -109.7882773230
3.680000000000000 0.1940973317835 -111.8197022246 0.9656270432178 -19.16216326662 0.9656270432178 -19.16216326662 0.1940952770275 -111.8495689183
3.700000000000000 0.2175317952861 -113.9466078376 0.9606687500374 -21.58578049945 0.9606687500374 -21.58578049945 0.2175281860960 -113.9742264504
3.720000000000000 0.2403373234553 -116.1072427952 0.9552848337046 -23.98368804496 0.9552848337046 -23.98368804496 0.2403321677243 -116.1331049516
3.740000000000000 0.2624683662315 -118.2829938728 0.9495245124951 -26.35402408904 0.9495245124951 -26.35402408904 0.2624616607800 -118.3074517839
3.760000000000000 0.2838869187705 -120.4612671327 0.9434382477433 -28.69520836745 0.9434382477433 -28.69520836745 0.2838786573230 -120.4845812041
3.780000000000000 0.3045622088194 -122.6332247939 0.9370769356394 -31.00594232371 0.9370769356394 -31.00594232371 0.3045523868817 -122.6555925407
3.800000000000000 0.3244703283129 -124.7925100779 0.9304911738671 -33.28520450403 0.9304911738671 -33.28520450403 0.3244589462238 -124.8140845127
3.820000000000000 0.3435937968907 -126.9344873760 0.9237306163437 -35.53224186272 0.9237306163437 -35.53224186272 0.3435808617210 -126.9553891570
3.840000000000000 0.3619210642428 -129.0557665672 0.9168434238451 -37.74655770150 0.9168434238451 -37.74655770150 0.3619065909244 -129.0760922862
3.860000000000000 0.3794459660881 -131.1538915361 0.9098758133190 -39.92789697740 0.9098758133190 -39.92789697740 0.3794299780032 -131.1737195319
3.880000000000000 0.3961671510879 -133.2271275319 0.9028717044495 -42.07622968954 0.9028717044495 -42.07622968954 0.3961496802665 -133.2465220649
3.900000000000000 0.4120874957258 -135.2743102550 0.8958724586323 -44.19173300606 0.8958724586323 -44.19173300606 0.4120685827536 -135.2933245688
3.920000000000000 0.4272135224737 -137.2947348521 0.8889167029972 -46.27477272380 0.8889167029972 -46.27477272380 0.4271932161826 -137.3134134590
3.940000000000000 0.4415548341332 -139.2880715906 0.8820402304213 -48.32588457438 0.8820402304213 -48.32588457438 0.4415331911320 -139.3064520061
3.960000000000000 0.4551235745674 -141.2542999745 0.8752759655320 -50.34575580621 0.8752759655320 -50.34575580621 0.4551006586564 -141.2724140517
3.980000000000000 0.4679339233768 -143.1936560360 0.8686539863808 -52.33520738802 0.8686539863808 -52.33520738802 0.4679098048849 -143.2115310054
4.000000000000000 0.4800016296195 -145.1065893553 0.8622015916474 -54.29517710015 0.8622015916474 -54.29517710015 0.4799763846945 -145.1242486443
4.020000000000000 0.4913435875146 -146.9937274922 0.8559434037876 -56.22670370714 0.8559434037876 -56.22670370714 0.4913172973961 -147.0111913776
4.040000000000000 0.5019774552562 -148.8558462311 0.8499014993395 -58.13091234102 0.8499014993395 -58.13091234102 0.5019502055550 -148.8731323637
4.060000000000000 0.5119213166012 -150.6938445031 0.8440955585576 -60.00900116982 0.8440955585576 -60.00900116982 0.5118931966081 -150.7109683337
4.080000000000000 0.5211933837720 -152.5087231565 0.8385430275679 -61.86222938043 0.8385430275679 -61.86222938043 0.5211644858169 -152.5256982851
4.100000000000001 0.5298117393947 -154.3015669445 0.8332592872643 -63.69190646829 0.8332592872643 -63.69190646829 0.5297821582742 -154.3184054104
4.120000000000000 0.5377941146396 -156.0735292449 0.8282578241493 -65.49938279795 0.8282578241493 -65.49938279795 0.5377639471302 -156.0902417701
4.140000000000001 0.5451577003946 -157.8258191150 0.8235503992321 -67.28604137741 0.8235503992321 -67.28604137741 0.5451270448674 -157.8424153131
4.160000000000000 0.5519189881507 -159.5596903622 0.8191472119121 -69.05329077422 0.8191472119121 -69.05329077422 0.5518879443024 -159.5761789216