! Sonnet Data File
! From: sonnet Version : 18.53-Lite
! From Emgraph Data: 
! Data File Written: 09/16/2023 12:22:57
!< HDATE 09/16/2023 12:22:22
!< MDATE 09/16/2023 12:22:22
# GHZ S MA R 50.00000
0.100000000000000 0.1218881789032 77.903527116007 0.9923825674741 -12.17088424687 0.9923825674738 -12.17088424687 0.1218881789036 77.903527137233
0.120000000000000 0.1455009487966 75.497546247224 0.9891575149985 -14.57556456107 0.9891575149985 -14.57556456107 0.1455001573909 75.495943487113
0.140000000000000 0.1686785566699 73.108459790501 0.9854271728759 -16.96272127024 0.9854271728759 -16.96272127024 0.1686763553780 73.106124772617
0.160000000000000 0.1913691026059 70.739625636046 0.9812303232591 -19.33031116206 0.9812303232591 -19.33031116206 0.1913653395994 70.737132513103
0.180000000000000 0.2135259871903 68.393264312697 0.9766071644203 -21.67649394049 0.9766071644203 -21.67649394049 0.2135209126728 68.390970930360
0.200000000000000 0.2351077505160 66.070993596825 0.9715989992575 -23.99961917108 0.9715989992575 -23.99961917108 0.2351019029721 66.069095958146
0.220000000000000 0.2560779759619 63.774078503146 0.9662479747864 -26.29822026054 0.9662479747864 -26.29822026054 0.2560720506355 63.772653915858
0.240000000000000 0.2764052369010 61.503553093555 0.9605968188604 -28.57101402139 0.9605968188604 -28.57101402139 0.2763999608751 61.502596191104
0.260000000000000 0.2960630533955 59.260277802476 0.9546885448975 -30.81690362121 0.9546885448975 -30.81690362121 0.2960590831803 59.259730448236
0.280000000000000 0.3150298259942 57.044962759855 0.9485661176508 -33.03498262322 0.9485661176508 -33.03498262322 0.3150276754681 57.044738049522
0.300000000000000 0.3332887211398 54.858173657795 0.9422720893381 -35.22453817673 0.9422720893378 -35.22453817672 0.3332887211702 54.858174255200
0.320000000000000 0.3508274934059 52.700329814023 0.9358482246839 -37.38505199193 0.9358482246839 -37.38505199193 0.3508297799521 52.700461088395
0.340000000000000 0.3676382406345 50.571700133335 0.9293351363861 -39.51619835316 0.9293351363861 -39.51619835316 0.3676427655701 50.571878776855
0.360000000000000 0.3837170970138 48.472400164706 0.9227719508357 -41.61783896887 0.9227719508357 -41.61783896887 0.3837236549326 48.472559093199
0.380000000000000 0.3990638753334 46.402391815933 0.9161960195321 -43.69001486991 0.9161960195321 -43.69001486991 0.3990721397981 46.402482176286
0.400000000000000 0.4136816729977 44.361486225137 0.9096426861046 -45.73293583283 0.9096426861046 -45.73293583283 0.4136912365782 44.361477284664
0.420000000000000 0.4275764573107 42.349349644663 0.9031451134109 -47.74696793982 0.9031451134109 -47.74696793982 0.4275868709810 42.349227240161
0.440000000000000 0.4407566446943 40.365511841481 0.8967341705271 -49.73261992008 0.8967341705271 -49.73261992008 0.4407674534494 40.365275947570
0.460000000000000 0.4532326865395 38.409376369238 0.8904383759017 -51.69052887901 0.8904383759017 -51.69052887901 0.4532434592752 38.409038224297
0.480000000000000 0.4650166718691 36.480232048004 0.8842838905630 -53.62144594198 0.8842838905630 -53.62144594198 0.4650270245597 36.479811163668
0.500000000000000 0.4761219543407 34.577265045058 0.8782945539348 -55.52622224049 0.8782945539348 -55.52622224049 0.4761315663148 34.576786328099
0.520000000000000 0.4865628086240 32.699571045504 0.8724919543182 -57.40579556539 0.8724919543182 -57.40579556539 0.4865714322840 32.699062181353
0.540000000000000 0.4963541190074 30.846167109915 0.8668955262282 -59.26117791615 0.8668955262282 -59.26117791615 0.4963615836945 30.845656294863
0.560000000000000 0.5055111013018 29.016002921848 0.8615226673190 -61.09344409179 0.8615226673190 -61.09344409179 0.5055173122047 29.015516984340
0.580000000000000 0.5140490577179 27.207971222514 0.8563888684260 -62.90372139940 0.8563888684260 -62.90372139940 0.5140539908059 27.207534140574
0.600000000000000 0.5219831633797 25.420917309257 0.8515078511645 -64.69318050244 0.8515078511645 -64.69318050244 0.5219868573318 25.420549108408
0.620000000000000 0.5293282824383 23.653647538072 0.8468917084511 -66.46302738964 0.8468917084511 -66.46302738964 0.5293308284821 23.653363539732
0.640000000000000 0.5360988113240 21.904936819123 0.8425510442035 -68.21449641634 0.8425510442035 -68.21449641634 0.5361003417987 21.904747201331
0.660000000000000 0.5423085464541 20.173535129928 0.8384951092748 -69.94884435047 0.8384951092748 -69.94884435047 0.5423092228023 20.173444758623
0.680000000000000 0.5479705736577 18.458173095815 0.8347319313850 -71.66734534318 0.8347319313856 -71.66734534316 0.5479705744295 18.458181584446
0.700000000000000 0.5530971766274 16.757566703546 0.8312684374037 -73.37128673838 0.8312684374037 -73.37128673838 0.5530966859751 16.757668659793
0.720000000000000 0.5576997618621 15.070421223456 0.8281105668313 -75.06196563347 0.8281105668313 -75.06196563347 0.5576989588790 15.070606646309
0.740000000000000 0.5617887977252 13.395434420373 0.8252633757180 -76.74068610422 0.8252633757180 -76.74068610422 0.5617878469161 13.395689211526
0.760000000000000 0.5653737654925 11.731299134318 0.8227311305639 -78.40875701091 0.8227311305639 -78.40875701091 0.5653728085545 11.731605694381
0.780000000000000 0.5684631204737 10.076705310904 0.8205173919760 -80.06749030629 0.8205173919760 -80.06749030629 0.5684622695112 10.077043193052
0.800000000000000 0.5710642615404 8.4303415583765 0.8186250880265 -81.71819977127 0.8186250880265 -81.71819977127 0.5710635937762 8.4306881561967
0.820000000000000 0.5731835076229 6.7908963045511 0.8170565773677 -83.36220010947 0.8170565773677 -83.36220010947 0.5731830616185 6.7912275541223
0.840000000000000 0.5748260799634 5.1570586228338 0.8158137022350 -85.00080633633 0.8158137022350 -85.00080633633 0.5748258533233 5.1573497020861
0.860000000000000 0.5759960891273 3.5275187925018 0.8148978315063 -86.63533340348 0.8148978315063 -86.63533340348 0.5759960376328 3.5277448035888
0.880000000000000 0.5766965259787 1.9009686546675 0.8143098939981 -88.26709600278 0.8143098939981 -88.26709600278 0.5766965640711 1.9011052774516
0.900000000000000 0.5769292560188 0.2761018219345 0.8140504021687 -89.89740849786 0.8140504021706 -89.89740849796 0.5769292585288 0.2761259285612
0.920000000000000 0.5766950166643 -1.348386201620 0.8141194664035 -91.52758493473 0.8141194664035 -91.52758493473 0.5766948216957 -1.348495977975
0.940000000000000 0.5759934172304 -2.973797940015 0.8145167999362 -93.15893908144 0.8145167999362 -93.15893908144 0.5759928300249 -2.974060691518
0.960000000000000 0.5748229415307 -4.601433846589 0.8152417146043 -94.79278445547 0.8152417146043 -94.79278445547 0.5748217392479 -4.601865933607
0.980000000000000 0.5731809531986 -6.232592140804 0.8162931073764 -96.43043428880 0.8162931073764 -96.43043428880 0.5731788904239 -6.233206797991
1.000000000000000 0.5710637039758 -7.868568525296 0.8176694377341 -98.07320138838 0.8176694377341 -98.07320138838 0.5710605188371 -7.869375532647
1.020000000000000 0.5684663453909 -9.510655731378 0.8193686958731 -99.72239784497 0.8193686958731 -99.72239784497 0.5684617661367 -9.511661152376
1.040000000000000 0.5653829444133 -11.16014283823 0.8213883616962 -101.3793345437 0.8213883616962 -101.3793345437 0.5653766963096 -11.16134882616
1.060000000000000 0.5618065038364 -12.81831430876 0.8237253545631 -103.0453204273 0.8237253545631 -103.0453204273 0.5617983162387 -12.81971898148
1.080000000000000 0.5577289883192 -14.48644868203 0.8263759737711 -104.7216614621 0.8263759737711 -104.7216614621 0.5577186017794 -14.48804606481
1.100000000000000 0.5531413571923 -16.16581685847 0.8293358297804 -106.4096592530 0.8293358297804 -106.4096592530 0.5531285304602 -16.16759689382
1.120000000000000 0.5480336053145 -17.85767990972 0.8325997662527 -108.1106092527 0.8325997662527 -108.1106092527 0.5480181220994 -17.85962853242
1.140000000000000 0.5423948134480 -19.56328634012 0.8361617730685 -109.8257985071 0.8361617730685 -109.8257985071 0.5423764888099 -19.56538561529
1.160000000000000 0.5362132098018 -21.28386872141 0.8400148906164 -111.5565028771 0.8400148906164 -111.5565028771 0.5361918960447 -21.28609704264
1.180000000000000 0.5294762445615 -23.02063961620 0.8441511058220 -113.3039836755 0.8441511058220 -113.3039836755 0.5294518365115 -23.02297196046
1.200000000000000 0.5221706793856 -24.77478669948 0.8485612406059 -115.0694836562 0.8485612406059 -115.0694836562 0.5221431189416 -24.77719493488
1.220000000000000 0.5142826939804 -26.54746697995 0.8532348337371 -116.8542222943 0.8532348337371 -116.8542222943 0.5142519738340 -26.54992022210
1.240000000000000 0.5057980119669 -28.33980001538 0.8581600173879 -118.6593902961 0.8581600173879 -118.6593902961 0.5057641783987 -28.34226502753
1.260000000000000 0.4967020482992 -30.15286000648 0.8633233900944 -120.4861432847 0.8633233900944 -120.4861432847 0.4966652029695 -30.15530163841
1.280000000000000 0.4869800804791 -31.98766664286 0.8687098882946 -122.3355946095 0.8687098882946 -122.3355946095 0.4869403811432 -31.99004830291
1.300000000000000 0.4766174457006 -33.84517455983 0.8743026591459 -124.2088072419 0.8743026591459 -124.2088072419 0.4765751057928 -33.84745871429
1.320000000000000 0.4655997658414 -35.72626124501 0.8800829379103 -126.1067847315 0.8800829379103 -126.1067847315 0.4655550528881 -35.72840993875
1.340000000000000 0.4539132018628 -37.63171320528 0.8860299338336 -128.0304612132 0.8860299338336 -128.0304612132 0.4538664346999 -37.63368859703
1.360000000000000 0.4415447386589 -39.56221016198 0.8921207291050 -129.9806904829 0.8921207291050 -129.9806904829 0.4414962834516 -39.56397506744
1.380000000000000 0.4284825006940 -41.51830697744 0.8983301961516 -131.9582341843 0.8983301961516 -131.9582341843 0.4284327657726 -41.51982541300
1.400000000000000 0.4147160978473 -43.50041291509 0.9046309391547 -133.9637491862 0.9046309391547 -133.9637491862 0.4146655273989 -43.50165063438
1.420000000000000 0.4002369997475 -45.50876767703 0.9109932662280 -135.9977742676 0.9109932662280 -135.9977742676 0.4001860664262 -45.50969269172
1.440000000000000 0.3850389355097 -47.54341341173 0.9173851991112 -138.0607162763 0.9173851991112 -138.0607162763 0.3849881320535 -47.54399648715
1.460000000000000 0.3691183142008 -49.60416148292 0.9237725274508 -140.1528359735 0.9237725274508 -140.1528359735 0.3690681441720 -49.60437659740
1.480000000000000 0.3524746595868 -51.69055214162 0.9301189146752 -142.2742338350 0.9301189146752 -142.2742338350 0.3524256273784 -51.69037689619
1.500000000000000 0.3351110508092 -53.80180417925 0.9363860620570 -144.4248361293 0.9363860620570 -144.4248361293 0.3350636510936 -53.80122014060
1.520000000000000 0.3170345586971 -55.93674986584 0.9425339367196 -146.6043816532 0.9425339367196 -146.6043816532 0.3169892655169 -55.93574281971
1.540000000000000 0.2982566655595 -58.09374745340 0.9485210680146 -148.8124095479 0.9485210680146 -148.8124095479 0.2982139212924 -58.09230753589
1.560000000000000 0.2787936547016 -60.27055822604 0.9543049148425 -151.0482486665 0.9543049148425 -151.0482486665 0.2787538591563 -60.26867988456
1.580000000000000 0.2586669547975 -62.46416547990 0.9598423040945 -153.3110089849 0.9598423040945 -153.3110089849 0.2586304547197 -62.46184718784
1.600000000000000 0.2379034239435 -64.67049471349 0.9650899374886 -155.5995755633 0.9650899374886 -155.5995755633 0.2378705032328 -64.66773831347
1.620000000000000 0.2165355592181 -66.88395848277 0.9700049607473 -157.9126055523 0.9700049607473 -157.9126055523 0.2165064301708 -66.88076794122
1.640000000000000 0.1946016207715 -69.09667426230 0.9745455854583 -160.2485286977 0.9745455854583 -160.2485286977 0.1945764166781 -69.09305343596
1.660000000000000 0.1721456668484 -71.29703480256 0.9786717502642 -162.6055517374 0.9786717502642 -162.6055517374 0.1721244362929 -71.29298343419
1.680000000000000 0.1492175128937 -73.46689702788 0.9823458045040 -164.9816669839 0.9823458045040 -164.9816669839 0.1492002161398 -73.46240331338
1.700000000000000 0.1258726699281 -75.57552832107 0.9855331943541 -167.3746652656 0.9855331943541 -167.3746652656 0.1258591778990 -75.57055418076
1.720000000000000 0.1021724421241 -77.56491453102 0.9882031291864 -169.7821532542 0.9882031291864 -169.7821532542 0.1021625388677 -77.55936335117
1.740000000000000 0.0781848251757 -79.30760773713 0.9903292045601 -172.2015750378 0.9903292045601 -172.2015750378 0.0781782161525 -79.30124234912
1.760000000000000 0.0539891628226 -80.45040758073 0.9918899582074 -174.6302376296 0.9918899582074 -174.6302376296 0.0539854981309 -80.44258668557
1.780000000000000 0.0297068812977 -79.49061441768 0.9928693367078 -177.0653399261 0.9928693367078 -177.0653399261 0.0297058536759 -79.47899951379
1.800000000000000 0.0063062887477 -51.42121601454 0.9932570532972 -179.5040044726 0.9932570532973 -179.5040044726 0.0063092223589 -51.38773689155
1.820000000000000 0.0199094577084 76.888179385038 0.9930488213142 178.05668874184 0.9930488213142 178.05668874184 0.0199089286918 76.876611728326
1.840000000000000 0.0441325218650 80.659500207828 0.9922464529501 175.61966734049 0.9922464529501 175.61966734049 0.0441308791986 80.654931412637
1.860000000000000 0.0683716591750 80.028529725098 0.9908578188388 173.18783140016 0.9908578188388 173.18783140016 0.0683699076956 80.025571764043
1.880000000000000 0.0924372646987 78.461809184101 0.9888966702698 170.76401902683 0.9888966702698 170.76401902683 0.0924361297589 78.459183155941
1.900000000000000 0.1162406898150 76.550952116470 0.9863823318813 168.35097357553 0.9863823318813 168.35097357553 0.1162408299293 76.548092976195
1.920000000000000 0.1397104956164 74.482047228160 0.9833392880183 165.95131247577 0.9833392880183 165.95131247577 0.1397124909751 74.478622396463
1.940000000000000 0.1627830298404 72.333214218734 0.9797966561247 163.56750017301 0.9797966561247 163.56750017301 0.1627873564991 72.328994891424
1.960000000000000 0.1854006442951 70.143629149560 0.9757875740640 161.20182587667 0.9757875740640 161.20182587667 0.1854076752119 70.138432144313
1.980000000000000 0.2075114126931 67.935515260130 0.9713485542897 158.85638380891 0.9713485542897 158.85638380891 0.2075214022260 67.929183345993
2.000000000000000 0.2290691608092 65.722673859522 0.9665188013992 156.53305832394 0.9665188013992 156.53305832394 0.2290822302604 65.715066595923
2.020000000000000 0.2500335244054 63.514274278766 0.9613395230155 154.23351342911 0.9613395230155 154.23351342911 0.2500496492813 63.505263534017
2.040000000000000 0.2703699456001 61.316716374181 0.9558532551108 151.95918659795 0.9558532551108 151.95918659795 0.2703889449646 61.306184146815
2.060000000000000 0.2900495822335 59.134621354289 0.9501032200888 149.71128663039 0.9501032200888 149.71128663039 0.2900711103918 59.122458817176
2.080000000000000 0.3090491287279 56.971394656752 0.9441327325613 147.49079520749 0.9441327325613 147.49079520749 0.3090726693851 56.957501888941
2.100000000000000 0.3273505571843 54.829564555687 0.9379846640895 145.29847170906 0.9379846640895 145.29847170906 0.3273754201557 54.813850677280
2.120000000000000 0.3449407920142 52.710996807862 0.9317009744726 143.13486081209 0.9317009744726 143.13486081209 0.3449661125104 52.693380356587
2.140000000000000 0.3618113331613 50.617037637823 0.9253223136875 141.00030236533 0.9253223136875 141.00030236533 0.3618360736287 50.597447090506
2.160000000000000 0.3779578431125 48.548613634454 0.9188876954719 138.89494303588 0.9188876954719 138.89494303588 0.3779807975723 48.526988011923
2.180000000000000 0.3933797120653 46.506304780947 0.9124342409118 136.81874924453 0.9124342409118 136.81874924453 0.3933995128673 46.482594295073
2.200000000000000 0.4080796141713 44.490400127017 0.9059969883023 134.77152094187 0.9059969883023 134.77152094187 0.4080947410559 44.464566840498
2.220000000000000 0.4220630659892 42.500941829403 0.8996087639909 132.75290582365 0.8996087639909 132.75290582365 0.4220718573325 42.472960306101
2.240000000000000 0.4353379963390 40.537761090730 0.8933001078714 130.76241363604 0.8933001078714 130.76241363604 0.4353386624437 40.507619018864
2.260000000000000 0.4479143348058 38.600508221005 0.8870992466076 128.79943027681 0.8870992466076 128.79943027681 0.4479049730882 38.568206994340
2.280000000000000 0.4598036242941 36.688678254432 0.8810321074611 126.86323145308 0.8810321074611 126.86323145308 0.4597822362086 36.654233498493
2.300000000000000 0.4710186613548 34.801633067214 0.8751223657106 124.95299570874 0.8751223657106 124.95299570874 0.4709831708910 34.765075098823
2.320000000000000 0.4815731665420 32.938620638860 0.8693915189859 123.06781668240 0.8693915189859 123.06781668240 0.4815214401192 32.899994848243
2.340000000000000 0.4914814858132 31.098791909055 0.8638589823491 121.20671450006 0.8638589823491 121.20671450006 0.4914113533925 31.058159054529
2.360000000000000 0.5007583229811 29.281215561516 0.8585421985634 119.36864624324 0.8585421985634 119.36864624324 0.5006676002049 29.238651967448
2.380000000000000 0.5094185024295 27.484890989027 0.8534567586522 117.55251546523 0.8534567586522 117.55251546523 0.5093050135913 27.440488638467
2.400000000000000 0.5174767607156 25.708759643785 0.8486165285209 115.75718075343 0.8486165285209 115.75718075343 0.5173383623534 25.662626157924
2.420000000000000 0.5249475652589 23.951714943997 0.8440337780720 113.98146335641 0.8440337780720 113.98146335641 0.5247821701565 23.903973441460
2.440000000000000 0.5318449580512 22.212610884949 0.8397193098550 112.22415391022 0.8397193098550 112.22415391022 0.5316505594214 22.163399714910
2.460000000000000 0.5381824221672 20.490269486466 0.8356825848511 110.48401830983 0.8356825848511 110.48401830983 0.5379571177830 20.439741830718
2.480000000000000 0.5439727688108 18.783487196402 0.8319318434933 108.75980278026 0.8319318434933 108.75980278026 0.5437147848417 18.731810536746
2.500000000000000 0.5492280426547 17.091040359838 0.8284742204513 107.05023820681 0.8284742204513 107.05023820681 0.5489357569568 17.038395808629
2.520000000000000 0.5539594433127 15.411689855307 0.8253158520775 105.35404378724 0.8253158520775 105.35404378724 0.5536314079187 15.358271348538
2.540000000000000 0.5581772609105 13.744184991966 0.8224619757194 103.66993006944 0.8224619757194 103.66993006944 0.5578122234599 13.690198345965
2.560000000000000 0.5618908238691 12.087266754931 0.8199170203478 101.99660143852 0.8199170203478 101.99660143852 0.5614877477201 12.032928589559
2.580000000000000 0.5651084571847 10.439670479919 0.8176846881494 100.33275811552 0.8176846881494 100.33275811552 0.5646665399522 10.385207013044
2.600000000000000 0.5678374496665 8.8001280327832 0.8157680268837 98.677097728415 0.8157680268837 98.677097728415 0.5673561399379 8.7457737526940
2.620000000000000 0.5700840287766 7.1673695645305 0.8141694929161 97.028316514020 0.8141694929161 97.028316514020 0.5695630407673 7.1133657889012
2.640000000000000 0.5718533418956 5.5401249079686 0.8128910049160 95.385110206575 0.8128910049160 95.385110206575 0.5712926678216 5.4867182398420
2.660000000000000 0.5731494430170 3.9171246783373 0.8119339882626 93.746174666956 0.8119339882626 93.746174666956 0.5725493629816 3.8645653713703
2.680000000000000 0.5739752840473 2.2971011370917 0.8112994102249 92.110206303956 0.8112994102249 92.110206303956 0.5733363732628 2.2456413839427
2.700000000000000 0.5743327100591 0.6787888755247 0.8109878059961 90.475902337299 0.8109878059961 90.475902337299 0.5736558432507 0.6286810346998
2.720000000000000 0.5742224580068 -0.939074626860 0.8109992956556 88.841960950470 0.8109992956556 88.841960950470 0.5735088108786 -0.987579849186
2.740000000000000 0.5736441585796 -2.557748515366 0.8113335921185 87.207081380292 0.8113335921185 87.207081380292 0.5728952062550 -2.604403911113
2.760000000000000 0.5725963410240 -4.178488090948 0.8119900001152 85.569963989471 0.8119900001152 85.569963989471 0.5718138534102 -4.223051805448
2.780000000000000 0.5710764409253 -5.802544304863 0.8129674062166 83.929310368114 0.8129674062166 83.929310368114 0.5702624749894 -5.844781683416
2.800000000000000 0.5690808111000 -7.431163161866 0.8142642599022 82.283823510413 0.8142642599022 82.283823510413 0.5682377000816 -7.470848569356
2.820000000000000 0.5666047359084 -9.065584974684 0.8158785456495 80.632208113410 0.8158785456495 80.632208113410 0.5657350755330 -9.102503570509
2.840000000000000 0.5636424494619 -10.70704340968 0.8178077460113 78.973171045833 0.8178077460113 78.973171045833 0.5627490812574 -10.74099286114
2.860000000000000 0.5601871583696 -12.35676425999 0.8200487956521 77.305422036492 0.8200487956521 77.305422036492 0.5592731502211 -12.38755637843
2.880000000000000 0.5562310698381 -14.01596387803 0.8225980263265 75.627674633508 0.8225980263265 75.627674633508 0.5552996939519 -14.04342616362
2.900000000000000 0.5517654261173 -15.68584719378 0.8254511028230 73.938647487655 0.8254511028230 73.938647487655 0.5508201345914 -15.70982427660
2.920000000000000 0.5467805464642 -17.36760523919 0.8286029499510 72.237066015200 0.8286029499510 72.237066015200 0.5458249446920 -17.38796020647
2.940000000000000 0.5412658779784 -19.06241209161 0.8320476707425 70.521664497683 0.8320476707425 70.521664497683 0.5403036961291 -19.07902769329
2.960000000000000 0.5352100568409 -20.77142114082 0.8357784561592 68.791188677864 0.8357784561592 68.791188677864 0.5342451196812 -20.78420086806
2.980000000000000 0.5286009816604 -22.49576057420 0.8397874867588 67.044398912419 0.8397874867588 67.044398912419 0.5276371769926 -22.50462960830
3.000000000000000 0.5214259007901 -24.23652796324 0.8440658269853 65.280073942497 0.8440658269853 65.280073942497 0.5204671467907 -24.24143399509
3.020000000000000 0.5136715156124 -25.99478382055 0.8486033130022 63.497015342766 0.8486033130022 63.497015342766 0.5127217273611 -25.99569774366
3.040000000000000 0.5053241018936 -27.77154397989 0.8533884353049 61.694052707517 0.8533884353049 61.694052707517 0.5043871573820 -27.76846046292
3.060000000000000 0.4963696513634 -29.56777063011 0.8584082177204 59.870049628492 0.8584082177204 59.870049628492 0.4954493572759 -29.56070857796
3.080000000000000 0.4867940356701 -31.38436180719 0.8636480948358 58.023910512696 0.8636480948358 58.023910512696 0.4858940932226 -31.37336472263
3.100000000000000 0.4765831947691 -33.22213911166 0.8690917903881 56.154588279130 0.8690917903881 56.154588279130 0.4757071658910 -33.20727537291
3.120000000000000 0.4657233516105 -35.08183336947 0.8747211996993 54.261092960475 0.8747211996993 54.261092960475 0.4648746257509 -35.06319644245
3.140000000000000 0.4542012546737 -36.96406788434 0.8805162798249 52.342501218797 0.8805162798249 52.342501218797 0.4533830165099 -36.94177649237
3.160000000000000 0.4420044494244 -38.86933883017 0.8864549517109 50.397966762683 0.8864549517109 50.397966762683 0.4412196477513 -38.84353710834
3.180000000000000 0.4291215791329 -40.79799218599 0.8925130192728 48.426731626553 0.8925130192728 48.426731626553 0.4283728972098 -40.76884985315
3.200000000000000 0.4155427146558 -42.75019639950 0.8986641109072 46.428138240790 0.8986641109072 46.428138240790 0.4148325422935 -42.71790898780
3.220000000000000 0.4012597117514 -44.72590963929 0.9048796494750 44.401642183871 0.9048796494750 44.401642183871 0.4005901194248 -44.69069883085
3.240000000000000 0.3862665932563 -46.72483999696 0.9111288571959 42.346825464988 0.9111288571959 42.346825464988 0.3856393085354 -46.68695413060
3.260000000000000 0.3705599520168 -48.74639622759 0.9173788021218 40.263410138483 0.9173788021218 40.263410138483 0.3699763386170 -48.70611105718
3.280000000000000 0.3541393688837 -50.78962539807 0.9235944928284 38.151272000906 0.9235944928284 38.151272000906 0.3536004086402 -50.74724521225
3.300000000000000 0.3370078383937 -52.85313185700 0.9297390276251 36.010454069375 0.9297390276251 36.010454069375 0.3365141164696 -52.80899111132
3.320000000000000 0.3191721930987 -54.93496873176 0.9357738038489 33.841179488642 0.9357738038489 33.841179488642 0.3187238867333 -54.88943440954
3.340000000000000 0.3006435160098 -57.03248776812 0.9416587916378 31.643863466718 0.9416587916378 31.643863466718 0.3002403870968 -56.98596278864
3.360000000000000 0.2814375295455 -59.14212399962 0.9473528749081 29.419123798878 0.9473528749081 29.419123798878 0.2810789213033 -59.09505216066
3.380000000000000 0.2615749490977 -61.25907503782 0.9528142601007 27.167789511272 0.9528142601007 27.167789511272 0.2612597870338 -61.21194826403
3.400000000000000 0.2410817904821 -63.37680367183 0.9580009506120 24.890907142530 0.9580009506120 24.890907142530 0.2408085877547 -63.33017284123
3.420000000000000 0.2199896243384 -65.48623174779 0.9628712817699 22.589744188843 0.9628712817699 22.589744188843 0.2197564914463 -65.44072328853
3.440000000000000 0.1983357795050 -67.57436800465 0.9673845078758 20.265789268623 0.9673845078758 20.265789268623 0.1981404379267 -67.53071023677
3.460000000000000 0.1761635175182 -69.62183624165 0.9715014293713 17.920748619642 0.9715014293713 17.920748619642 0.1760033163335 -69.58090311012
3.480000000000000 0.1535222475976 -71.59810961044 0.9751850448433 15.556538625595 0.9751850448433 15.556538625595 0.1533941808860 -71.56099761410
3.500000000000000 0.1304679735190 -73.45151033004 0.9784012095973 13.175274179579 0.9784012095973 13.175274179579 0.1303686934109 -73.41968434655
3.520000000000000 0.1070645256928 -75.08577900993 0.9811192801904 10.779252825933 0.9811192801904 10.779252825933 0.1069903380109 -75.06137739915
3.540000000000000 0.0833874207582 -76.29620037874 0.9833127228758 8.3709347737513 0.9833127228758 8.3709347737513 0.0833342244177 -76.28276591776
3.560000000000000 0.0595381344250 -76.55168093365 0.9849596635998 5.9529190375896 0.9849596635998 5.9529190375896 0.0595011588944 -76.55629338109
3.580000000000000 0.0357181756559 -73.91004343598 0.9860433581538 3.5279161237836 0.9860433581538 3.5279161237836 0.0356907182580 -73.95179672498
3.600000000000000 0.0131330820881 -52.70502328466 0.9865525633669 1.0987178339334 0.9865525633669 1.0987178339334 0.0130953685475 -52.85525273513
3.620000000000000 0.0157228627014 59.229281402700 0.9864817937733 -1.331835110518 0.9864817937733 -1.331835110518 0.0156939622992 59.440388933055
3.640000000000000 0.0387080640722 74.789196758105 0.9858314528129 -3.760886816915 0.9858314528129 -3.760886816915 0.0386933858265 74.896919378809
3.660000000000000 0.0625311081148 76.811002592381 0.9846078330397 -6.185600474830 0.9846078330397 -6.185600474830 0.0625222233311 76.881855507880
3.680000000000000 0.0863352336858 76.380005292064 0.9828224827342 -8.603147945261 0.9828224827342 -8.603147945261 0.0863312528371 76.431808127577
3.700000000000000 0.1099448162722 75.097338909079 0.9804923774616 -11.01078012258 0.9804923774616 -11.01078012258 0.1099443342599 75.138312677181
3.720000000000000 0.1332635951459 73.427203457449 0.9776400471991 -13.40590394690 0.9776400471991 -13.40590394690 0.1332658023902 73.461254629378
3.740000000000000 0.1562181903026 71.554128166755 0.9742926203274 -15.78606816459 0.9742926203274 -15.78606816459 0.1562225114383 71.583415021200
3.760000000000000 0.1787461534811 69.566606060856 0.9704812666557 -18.14898684203 0.9704812666557 -18.14898684203 0.1787521255925 69.592447203989
3.780000000000000 0.2007926470463 67.512809291643 0.9662405837981 -20.49255898829 0.9662405837981 -20.49255898829 0.2007998712399 67.536070313461
3.800000000000000 0.2223093675536 65.421489712564 0.9616079493945 -22.81488403922 0.9616079493945 -22.81488403922 0.2223174880500 65.442770143757
3.820000000000000 0.2432541463598 63.311042003145 0.9566228612385 -25.11427311874 0.9566228612385 -25.11427311874 0.2432628413780 63.330774587945
3.840000000000000 0.2635907456038 61.193874593579 0.9513262858288 -27.38925614466 0.9513262858288 -27.38925614466 0.2635997237455 61.212381916490
3.860000000000000 0.2832886810014 59.078698095713 0.9457600334331 -29.63858497997 0.9457600334331 -29.63858497997 0.2832976803099 59.096226757397
3.880000000000000 0.3023230105948 56.971805438507 0.9399661747109 -31.86123293944 0.9399661747109 -31.86123293944 0.3023317989099 56.988547641015
3.900000000000000 0.3206740708910 54.877828840719 0.9339865105491 -34.05639104410 0.9339865105491 -34.05639104410 0.3206824467746 54.893936537079
3.920000000000000 0.3383271600128 52.800209579236 0.9278621032965 -36.22346147122 0.9278621032965 -36.22346147122 0.3383349538508 52.815804038411
3.940000000000000 0.3552721755936 50.741502478317 0.9216328742399 -38.36204867631 0.9216328742399 -38.36204867631 0.3552792506524 50.756680918405
3.960000000000000 0.3715032185175 48.703581361909 0.9153372691306 -40.47194866915 0.9153372691306 -40.47194866915 0.3715094718311 48.718421649043
3.980000000000000 0.3870181745320 46.687783004450 0.9090119909578 -42.55313691179 0.9090119909578 -42.55313691179 0.3870235375545 46.702347040483
4.000000000000000 0.4018182853461 44.695011621074 0.9026917970361 -44.60575527669 0.9026917970361 -44.60575527669 0.4018227243397 44.709347821192
4.020000000000000 0.4159077196698 42.725817241964 0.8964093558510 -46.63009846227 0.8964093558510 -46.63009846227 0.4159112358212 42.739962367412
4.040000000000000 0.4292931531144 40.780456269719 0.8901951579761 -48.62660021529 0.8901951579761 -48.62660021529 0.4292957823860 40.794436795140
4.060000000000000 0.4419833641827 38.858939506335 0.8840774746788 -50.59581965746 0.8840774746788 -50.59581965746 0.4419851769156 38.872772645815
4.080000000000000 0.4539888518934 36.961071094088 0.8780823575271 -52.53842796210 0.8780823575271 -52.53842796210 0.4539899521834 36.974765573331
4.100000000000001 0.4653214789993 35.086480664126 0.8722336723151 -54.45519557546 0.8722336723151 -54.45519557546 0.4653220038709 35.100037301464
4.120000000000000 0.4759941433385 33.234650255242 0.8665531608682 -56.34698013111 0.8665531608682 -56.34698013111 0.4759942617435 33.248062397162
4.140000000000001 0.4860204786341 31.404937092842 0.8610605247182 -58.21471516288 0.8610605247182 -58.21471516288 0.4860203903014 31.418190937820
4.160000000000000 0.4954145850403 29.596593008512 0.8557735251732 -60.05939968496 0.8557735251732 -60.05939968496 0.4954145192040 29.609667844498