! Sonnet Data File
! From: sonnet Version : 18.53-Lite
! From Emgraph Data: 
! Data File Written: 09/16/2023 12:18:17
!< HDATE 09/16/2023 12:15:31
!< MDATE 09/16/2023 12:15:31
# GHZ S MA R 50.00000
0.100000000000000 0.0024874782220 -107.2018992111 0.9996717056109 -10.09654469982 0.0032957425895 79.982635364799 0.0019675732362 -99.91482256592
                  0.9996717056110 -10.09654469983 0.0024874782275 -107.2019002926 0.0019675732362 -99.91482256561 0.0032957425896 79.982635392258
                  0.0032957425895 79.982635365003 0.0019675732362 -99.91482256637 0.0024874782236 -107.2018991920 0.9996717056115 -10.09654469963
                  0.0019675732362 -99.91482256629 0.0032957425896 79.982635392703 0.9996717056119 -10.09654469964 0.0024874782291 -107.2019002649
0.120000000000000 0.0029785069916 -109.1847991028 0.9996033137768 -12.11578807476 0.0039459521115 77.998972888381 0.0023616489096 -101.8611177623
                  0.9996033137768 -12.11578807476 0.0029784303827 -109.1858141703 0.0023616489086 -101.8611177252 0.0039449930466 77.999335788851
                  0.0039459521115 77.998972888381 0.0023616489086 -101.8611177252 0.0029785069868 -109.1847988400 0.9996033137729 -12.11578807482
                  0.0023616489096 -101.8611177623 0.0039449930466 77.999335788851 0.9996033137729 -12.11578807482 0.0029784303782 -109.1858141144
0.140000000000000 0.0034657170907 -111.1696918126 0.9995341402008 -14.13501145860 0.0045911414652 75.973076935485 0.0027559711028 -103.8806242903
                  0.9995341402007 -14.13501145860 0.0034657171115 -111.1696947886 0.0027559711028 -103.8806242902 0.0045911414659 75.973077016579
                  0.0045911414652 75.973076935482 0.0027559711028 -103.8806242903 0.0034657170914 -111.1696917531 0.9995341402039 -14.13501145846
                  0.0027559711028 -103.8806242902 0.0045911414659 75.973077016537 0.9995341402040 -14.13501145845 0.0034657171118 -111.1696947370
0.160000000000000 0.0039485910216 -113.1545470314 0.9994641643153 -16.15421335144 0.0052296276555 73.943485521870 0.0031496217909 -105.9082157346
                  0.9994641643153 -16.15421335144 0.0039487467872 -113.1535699979 0.0031496217920 -105.9082157859 0.0052312854167 73.937886814865
                  0.0052296276555 73.943485521870 0.0031496217920 -105.9082157859 0.0039485909761 -113.1545465183 0.9994641642761 -16.15421335362
                  0.0031496217909 -105.9082157346 0.0052312854167 73.937886814865 0.9994641642761 -16.15421335362 0.0039487467443 -113.1535693874
0.180000000000000 0.0044266100892 -115.1387393471 0.9993933808039 -18.17339148200 0.0058609765381 71.925913903615 0.0035429085849 -107.9171110357
                  0.9993933808039 -18.17339148200 0.0044269297451 -115.1373904784 0.0035429085865 -107.9171111247 0.0058640505710 71.912064491163
                  0.0058609765381 71.925913903615 0.0035429085865 -107.9171111247 0.0044266100232 -115.1387386759 0.9993933807386 -18.17339148499
                  0.0035429085849 -107.9171110357 0.0058640505710 71.912064491163 0.9993933807386 -18.17339148499 0.0044269296901 -115.1373895742
0.200000000000000 0.0048992487770 -117.1222092033 0.9993217993153 -20.19254315210 0.0064852734779 69.922248973361 0.0039366747310 -109.9036633500
                  0.9993217993153 -20.19254315210 0.0048996839805 -117.1210492383 0.0039366747324 -109.9036634538 0.0064890017157 69.901551600206
                  0.0064852734779 69.922248973361 0.0039366747324 -109.9036634538 0.0048992487010 -117.1222084209 0.9993217992291 -20.19254315528
                  0.0039366747310 -109.9036633500 0.0064890017157 69.901551600206 0.9993217992291 -20.19254315528 0.0048996839249 -117.1210481790
0.220000000000000 0.0053659730562 -119.1051043072 0.9992494436260 -22.21166554289 0.0071025505277 67.927719070438 0.0043317400031 -111.8755230244
                  0.9992494436260 -22.21166554289 0.0053664394111 -119.1044274350 0.0043317400039 -111.8755231205 0.0071060570256 67.904574319197
                  0.0071025505277 67.927719070438 0.0043317400039 -111.8755231205 0.0053659729822 -119.1051034909 0.9992494435299 -22.21166554572
                  0.0043317400031 -111.8755230244 0.0071060570256 67.904574319197 0.9992494435299 -22.21166554572 0.0053664393636 -119.1044263900
0.240000000000000 0.0058262412059 -121.0876198594 0.9991763499179 -24.23075597134 0.0077124747640 65.935896889045 0.0047285797441 -113.8433561049
                  0.9991763499179 -24.23075597134 0.0058266398768 -121.0874319578 0.0047285797442 -113.8433561763 0.0077150639788 65.915874122465
                  0.0077124747640 65.935896889045 0.0047285797442 -113.8433561763 0.0058262411448 -121.0876190947 0.9991763498255 -24.23075597349
                  0.0047285797441 -113.8433561049 0.0077150639788 65.915874122465 0.9991763498255 -24.23075597349 0.0058266398405 -121.0874310779
0.260000000000000 0.0062795059524 -123.0699273960 0.9991025641052 -26.24981209281 0.0083142818865 63.941549723734 0.0051272390533 -115.8160443422
                  0.9991025641052 -26.24981209281 0.0062797428481 -123.0700140488 0.0051272390531 -115.8160443793 0.0083155866079 63.929747986983
                  0.0083142818865 63.941549723734 0.0051272390531 -115.8160443793 0.0062795059118 -123.0699267592 0.9991025640297 -26.24981209421
                  0.0051272390533 -115.8160443422 0.0083155866079 63.929747986983 0.9991025640297 -26.24981209421 0.0062797428199 -123.0700134385
0.280000000000000 0.0067252174138 -125.0521451940 0.9990281384769 -28.26883203117 0.0089068730273 61.941750001996 0.0055274115891 -117.7987459033
                  0.9990281384770 -28.26883203118 0.0067252177342 -125.0521697916 0.0055274115891 -117.7987459034 0.0089068730456 61.941750702398
                  0.0089068730273 61.941750001976 0.0055274115892 -117.7987459034 0.0067252174131 -125.0521451964 0.9990281384765 -28.26883203107
                  0.0055274115892 -117.7987459033 0.0089068730456 61.941750702397 0.9990281384765 -28.26883203106 0.0067252177337 -125.0521697987
0.300000000000000 0.0071628269073 -127.0343300490 0.9989531282392 -30.28781440940 0.0094889808223 59.935846691129 0.0059285944838 -119.7928718544
                  0.9989531282392 -30.28781440940 0.0071625441397 -127.0339289103 0.0059285944845 -119.7928718183 0.0094879349556 59.949295778414
                  0.0094889808223 59.935846691129 0.0059285944845 -119.7928718183 0.0071628269166 -127.0343298110 0.9989531282249 -30.28781440998
                  0.0059285944838 -119.7928718544 0.0094879349556 59.949295778414 0.9989531282249 -30.28781440998 0.0071625441029 -127.0339289292
0.320000000000000 0.0075917903338 -129.0164800934 0.9988775883455 -32.30675834392 0.0100593325233 57.924867528281 0.0063302473870 -121.7970433186
                  0.9988775883455 -32.30675834392 0.0075912099498 -129.0153390211 0.0063302473889 -121.7970432523 0.0100576698148 57.951541414815
                  0.0100593325233 57.924867528281 0.0063302473889 -121.7970432523 0.0075917903662 -129.0164800763 0.9988775883667 -32.30675834465
                  0.0063302473870 -121.7970433186 0.0100576698148 57.951541414815 0.9988775883667 -32.30675834465 0.0075912098942 -129.0153393045
0.340000000000000 0.0080115725241 -130.9985451192 0.9988015713022 -34.32566333244 0.0106167702844 55.910769775503 0.0067319135259 -123.8083235789
                  0.9988015713022 -34.32566333244 0.0080107111190 -130.9964507975 0.0067319135293 -123.8083234897 0.0106149764395 55.948929761285
                  0.0106167702844 55.910769775503 0.0067319135293 -123.8083234897 0.0080115725755 -130.9985453067 0.9988015713564 -34.32566333369
                  0.0067319135259 -123.8083235789 0.0106149764395 55.948929761285 0.9988015713564 -34.32566333369 0.0080107110371 -130.9964512710
0.360000000000000 0.0084216505464 -132.9804397040 0.9987251258504 -36.34452915394 0.0111603167265 53.895781091503 0.0071332883075 -125.8233087372
                  0.9987251258504 -36.34452915394 0.0084205516918 -132.9773070194 0.0071332883127 -125.8233086331 0.0111588381318 53.942646510882
                  0.0111603167265 53.895781091503 0.0071332883127 -125.8233086331 0.0084216506118 -132.9804400622 0.9987251259312 -36.34452915599
                  0.0071332883075 -125.8233087372 0.0111588381318 53.942646510882 0.9987251259312 -36.34452915599 0.0084205515797 -132.9773075963
0.380000000000000 0.0088215167317 -134.9620575958 0.9986482966511 -38.36335575155 0.0116891916815 51.881930847086 0.0075342394652 -127.8389012276
                  0.9986482966511 -38.36335575155 0.0088202447590 -134.9579364112 0.0075342394721 -127.8389011164 0.0116883671196 51.934153430537
                  0.0116891916815 51.881930847086 0.0075342394721 -127.8389011164 0.0088215168058 -134.9620580783 0.9986482967496 -38.36335575453
                  0.0075342394652 -127.8389012276 0.0116883671196 51.934153430537 0.9986482967496 -38.36335575453 0.0088202446171 -134.9579370062
0.400000000000000 0.0092106809170 -136.9432852264 0.9985711247265 -40.38214313591 0.0122027940620 49.870782060748 0.0079347916634 -129.8527466168
                  0.9985711247265 -40.38214313591 0.0092093137652 -136.9383517551 0.0079347916718 -129.8527465055 0.0122028156187 49.924855010508
                  0.0122027940620 49.870782060748 0.0079347916718 -129.8527465055 0.0092106809951 -136.9432857790 0.9985711248323 -40.38214313979
                  0.0079347916634 -129.8527466168 0.0122028156187 49.924855010508 0.9985711248323 -40.38214313979 0.0092093135981 -136.9383522934
0.420000000000000 0.0095886719093 -138.9240131393 0.9984936483938 -42.40089131749 0.0127006640340 47.863329049739 0.0083350903901 -131.8633927771
                  0.9984936483938 -42.40089131749 0.0095872939428 -138.9185511006 0.0083350903996 -131.8633926718 0.0127015636980 47.915902765040
                  0.0127006640340 47.863329049739 0.0083350903996 -131.8633926718 0.0095886719874 -138.9240137052 0.9984936484960 -42.40089132207
                  0.0083350903901 -131.8633927771 0.0127015636980 47.915902765040 0.9984936484960 -42.40089132207 0.0095872937591 -138.9185515252
0.440000000000000 0.0099550382214 -140.9041446505 0.9984159044196 -44.41960027117 0.0131824382210 45.860011260653 0.0087353579367 -133.8702561232
                  0.9984159044196 -44.41960027117 0.0099537336714 -140.8985207725 0.0087353579466 -133.8702560291 0.0131840944441 45.908112179381
                  0.0131824382210 45.860011260653 0.0087353579466 -133.8702560291 0.0099550382969 -140.9041451732 0.9984159045078 -44.41960027611
                  0.0087353579367 -133.8702561232 0.0131840944441 45.908112179381 0.9984159045078 -44.41960027611 0.0099537334824 -140.8985210474
0.460000000000000 0.0103093482043 -142.8836015622 0.9983379291656 -46.43826993064 0.0136478068928 43.860796057502 0.0091358506768 -135.8734756246
                  0.9983379291656 -46.43826993064 0.0103081956423 -142.8782390731 0.0091358506864 -135.8734755454 0.0136499649266 43.901958502973
                  0.0136478068928 43.860796057502 0.0091358506864 -135.8734755454 0.0103093482757 -142.8836019887 0.9983379292311 -46.43826993545
                  0.0091358506768 -135.8734756246 0.0136499649266 43.901958502973 0.9983379292311 -46.43826993545 0.0103081954612 -142.8782391839
0.480000000000000 0.0106511897347 -144.8623271293 0.9982597595636 -48.45690020639 0.0140964783829 41.865292896601 0.0095368231789 -137.8737185426
                  0.9982597595636 -48.45690020639 0.0106502577826 -144.8576798935 0.0095368231875 -137.8737184810 0.0140987787528 41.897619713461
                  0.0140964783829 41.865292896601 0.0095368231875 -137.8737184810 0.0106511898020 -144.8623274121 0.9982597595992 -48.45690021052
                  0.0095368231789 -137.8737185426 0.0140987787528 41.897619713461 0.9982597595992 -48.45690021052 0.0106502576233 -144.8576798465
0.500000000000000 0.0109801696239 -146.8402867139 0.9981814338244 -50.47549101993 0.0145281529826 39.872872625027 0.0099385016395 -139.8719821981
                  0.9981814338244 -50.47549101993 0.0109795139430 -146.8368157739 0.0099385016461 -139.8719821556 0.0145301634626 39.895041733430
                  0.0145281529826 39.872872625027 0.0099385016461 -139.8719821556 0.0109801696880 -146.8402868122 0.9981814338254 -50.47549102275
                  0.0099385016395 -139.8719821981 0.0145301634626 39.895041733430 0.9981814338254 -50.47549102275 0.0109795138191 -146.8368155930
0.520000000000000 0.0112959128938 -148.8174666722 0.9981029918480 -52.49404234661 0.0149425064668 37.882775781345 0.0103410669442 -141.8694184558
                  0.9981029918480 -52.49404234661 0.0112955743855 -148.8156202092 0.0103410669480 -141.8694184327 0.0149437540540 37.894008642918
                  0.0149425064668 37.882775781345 0.0103410669480 -141.8694184327 0.0112959129570 -148.8174665527 0.9981029918118 -52.49404234748
                  0.0103410669442 -141.8694184558 0.0149437540540 37.894008642918 0.9981029918118 -52.49404234748 0.0112955743090 -148.8156199327
0.540000000000000 0.0115980619845 -150.7938717842 0.9980244752987 -54.51255426427 0.0153391821411 35.894201680848 0.0107446463132 -143.8671939014
                  0.9980244752984 -54.51255426428 0.0115980660542 -150.7940690653 0.0107446463132 -143.8671939014 0.0153391826089 35.894207357499
                  0.0153391821410 35.894201680845 0.0107446463132 -143.8671939014 0.0115980619846 -150.7938717829 0.9980244752986 -54.51255426424
                  0.0107446463132 -143.8671939014 0.0153391826089 35.894207357477 0.9980244752985 -54.51255426426 0.0115980660544 -150.7940690647
0.560000000000000 0.0118862763880 -152.7695234021 0.9979459276947 -56.53102697817 0.0157177896937 33.906375684637 0.0111493118172 -145.8663890338
                  0.9979459276947 -56.53102697817 0.0118866331310 -152.7721419987 0.0111493118128 -145.8663890473 0.0157160732325 33.895281451844
                  0.0157177896937 33.906375684637 0.0111493118128 -145.8663890473 0.0118862764584 -152.7695227770 0.9979459275861 -56.53102697333
                  0.0111493118172 -145.8663890338 0.0157160732325 33.895281451844 0.9979459275861 -56.53102697333 0.0118866331763 -152.7721416818
0.580000000000000 0.0121602315306 -154.7444536936 0.9978673936306 -58.54946089274 0.0160779089571 31.918595357146 0.0115550838354 -147.8679340405
                  0.9978673936306 -58.54946089274 0.0121609365634 -154.7498215883 0.0115550838257 -147.8679340695 0.0160740411686 31.896872164789
                  0.0160779089571 31.918595357146 0.0115550838257 -147.8679340695 0.0121602316101 -154.7444527954 0.9978673934909 -58.54946088424
                  0.0115550838354 -147.8679340405 0.0160740411686 31.896872164789 0.9978673934909 -58.54946088424 0.0121609366775 -154.7498213354
0.600000000000000 0.0124196189889 -156.7187046738 0.9977889187448 -60.56785660496 0.0164190968746 29.930258563124 0.0119619376906 -149.8725750982
                  0.9977889187448 -60.56785660496 0.0124206548564 -156.7270943762 0.0119619376748 -149.8725751403 0.0164126949209 29.898647218526
                  0.0164190968746 29.930258563124 0.0119619376748 -149.8725751403 0.0124196190816 -156.7187034977 0.9977889185795 -60.56785659238
                  0.0119619376906 -149.8725750982 0.0164126949209 29.898647218526 0.9977889185795 -60.56785659238 0.0124206550401 -156.7270942431
0.620000000000000 0.0126641459881 -158.6923238567 0.9977105489288 -62.58621494184 0.0167408961753 27.940876835825 0.0123698119212 -151.8808645334
                  0.9977105489288 -62.58621494184 0.0126654838933 -158.7039499032 0.0123698118990 -151.8808645857 0.0167316402843 27.900318787447
                  0.0167408961753 27.940876835825 0.0123698118990 -151.8808645857 0.0126641460980 -158.6923224038 0.9977105487448 -62.58621492485
                  0.0123698119212 -151.8808645334 0.0167316402843 27.900318787447 0.9977105487448 -62.58621492485 0.0126654841443 -158.7039499421
0.640000000000000 0.0128935354081 -160.6653616886 0.9976323297612 -64.60453696805 0.0170428446538 25.950077838072 0.0127786170449 -153.8931678255
                  0.9976323297612 -64.60453696805 0.0128951371545 -160.6803802875 0.0127786170158 -153.8931678849 0.0170304854028 25.901652838830
                  0.0170428446538 25.950077838072 0.0127786170158 -153.8931678849 0.0128935355390 -160.6653599651 0.9976323295664 -64.60453694644
                  0.0127786170449 -153.8931678255 0.0170304854028 25.901652838830 0.9976323295664 -64.60453694644 0.0128951374679 -160.6803805444
0.660000000000000 0.0131075258689 -162.6378691563 0.9975543058911 -66.62282398901 0.0173244842429 23.957600179395 0.0131882439852 -155.9096814937
                  0.9975543058911 -66.62282398901 0.0131093458906 -162.6563796208 0.0131882439490 -155.9096815572 0.0173088461687 23.902471927012
                  0.0173244842429 23.957600179395 0.0131882439490 -155.9096815572 0.0131075260244 -162.6378671725 0.9975543056936 -66.62282396267
                  0.0131882439852 -155.9096814937 0.0173088461687 23.902471927012 0.9975543056936 -66.62282396267 0.0131093462587 -162.6563801341
0.680000000000000 0.0133058719291 -164.6098958267 0.9974765204453 -68.64107754684 0.0175853693594 21.963283363158 0.0135985716433 -157.9304569881
                  0.9974765204453 -68.64107754684 0.0133078593133 -164.6319433651 0.0135985716000 -157.9304570526 0.0175663514798 21.902653385327
                  0.0175853693594 21.963283363158 0.0135985716000 -157.9304570526 0.0133058721122 -164.6098935968 0.9974765202536 -68.64107751576
                  0.0135985716433 -157.9304569881 0.0175663514798 21.902653385327 0.9974765202536 -68.64107751576 0.0133078597261 -164.6319441644
0.700000000000000 0.0134883443730 -166.5814883060 0.9973990144818 -70.65929941034 0.0178250742217 19.967055029193 0.0140094733358 -159.9554269138
                  0.9973990144818 -70.65929941034 0.0134904448027 -166.6070677889 0.0140094732854 -159.9554269766 0.0178026480413 19.902124543288
                  0.0178250742217 19.967055029193 0.0140094732854 -159.9554269766 0.0134883445863 -166.5814858467 0.9973990143042 -70.65929937462
                  0.0140094733358 -159.9554269138 0.0178026480413 19.902124543288 0.9973990143042 -70.65929937462 0.0134904452490 -166.6070688945
0.720000000000000 0.0136547305618 -168.5526890797 0.9973218265014 -72.67749156020 0.0180431990077 17.968917092663 0.0144208219993 -161.9844310137
                  0.9973218265014 -72.67749156020 0.0136568881264 -168.5817494680 0.0144208219422 -161.9844310723 0.0180174045366 17.900856254655
                  0.0180431990077 17.968917092663 0.0144208219422 -161.9844310723 0.0136547308074 -168.5526864103 0.9973218263458 -72.67749152003
                  0.0144208219993 -161.9844310137 0.0180174045366 17.900856254655 0.9973218263458 -72.67749152003 0.0136568885935 -168.5817508906
0.740000000000000 0.0138048348253 -170.5235356882 0.9972449920257 -74.69565617052 0.0182393748319 15.968931895580 0.0148324941898 -164.0172402535
                  0.9972449920257 -74.69565617052 0.0138069936625 -170.5559848602 0.0148324941263 -164.0172403059 0.0182103150918 15.898855697451
                  0.0182393748319 15.968931895580 0.0148324941263 -164.0172403059 0.0138048351045 -170.5235328296 0.9972449918995 -74.69565612617
                  0.0148324941898 -164.0172402535 0.0182103150918 15.898855697451 0.9972449918995 -74.69565612617 0.0138069941374 -170.5559866012
0.760000000000000 0.0139384788735 -172.4940601837 0.9971685432456 -76.71379558777 0.0184132676013 13.967209099102 0.0152443729775 -166.0535780702
                  0.9971685432456 -76.71379558777 0.0139405846217 -172.5297699534 0.0152443729082 -166.0535781145 0.0183811020312 13.896159124733
                  0.0184132676013 13.967209099102 0.0152443729082 -166.0535781145 0.0139384791873 -172.4940571578 0.9971685431551 -76.71379553958
                  0.0152443729775 -166.0535780702 0.0183811020312 13.896159124733 0.9971685431551 -76.71379553958 0.0139405850909 -172.5297720056
0.780000000000000 0.0140555022135 -174.4642888159 0.9970925087380 -78.73191230797 0.0185645808460 11.963893749697 0.0156563498853 -168.0931383727
                  0.9970925087380 -78.73191230797 0.0140575032608 -174.5030999827 0.0156563498109 -168.0931384077 0.0185295179673 11.892825014341
                  0.0185645808460 11.963893749697 0.0156563498109 -168.0931384077 0.0140555025622 -174.4642856454 0.9970925086888 -78.73191225635
                  0.0156563498853 -168.0931383727 0.0185295179673 11.892825014341 0.9970925086888 -78.73191225635 0.0140575037115 -174.5031023307
0.800000000000000 0.0141557625556 -176.4342418981 0.9970169132495 -80.75000895299 0.0186930576470 9.9591557389122 0.0160683260310 -170.1356002494
                  0.9970169132495 -80.75000895299 0.0141576110839 -176.4759692036 0.0160683259520 -170.1356002741 0.0186553472939 9.8889278867149
                  0.0186930576470 9.9591557389122 0.0160683259520 -170.1356002741 0.0141557629388 -176.4342386060 0.9970169132460 -80.75000889837
                  0.0160683260310 -170.1356002494 0.0186553472939 9.8889278867149 0.9970169132460 -80.75000889837 0.0141576115039 -176.4759718250
0.820000000000000 0.0142391361985 -178.4039338070 0.9969417775411 -82.76808824648 0.0187984817888 7.9531807293170 0.0164802126328 -172.1806395667
                  0.9969417775411 -82.76808824648 0.0142407890255 -178.4483707115 0.0164802125502 -172.1806395808 0.0187584071675 7.8845529271614
                  0.0187984817888 7.9531807293170 0.0164802125502 -172.1806395808 0.0142391366155 -178.4039304166 0.9969417775868 -82.76808818935
                  0.0164802126328 -172.1806395667 0.0187584071675 7.8845529271614 0.9969417775868 -82.76808818935 0.0142407894037 -178.4483735778
0.840000000000000 0.0143055183869 179.62662692022 0.9968671182900 -84.78615299003 0.0188806782600 5.9461625228604 0.0168919310285 -174.2279377792
                  0.9968671182900 -84.78615299003 0.0143069376125 179.57970370788 0.0168919309430 -174.2279377825 0.0188385480595 5.8797914551853
                  0.0188806782600 5.9461625228604 0.0168919309430 -174.2279377825 0.0143055188363 179.62663038640 0.9968671183872 -84.78615293087
                  0.0168919310285 -174.2279377792 0.0188385480595 5.8797914551853 0.9968671183872 -84.78615293087 0.0143069379391 179.57970063007
0.860000000000000 0.0143548236328 177.65743742863 0.9967929480411 -86.80420603984 0.0189395132221 3.9382967887977 0.0173034123355 -176.2771883315
                  0.9967929480411 -86.80420603984 0.0143559771026 177.60826370742 0.0173034122480 -176.2771883242 0.0188956539622 3.8747372209448
                  0.0189395132221 3.9382967887977 0.0173034122480 -176.2771883242 0.0143548241129 177.65744094824 0.9967929481909 -86.80420597917
                  0.0173034123355 -176.2771883315 0.0188956539622 3.8747372209448 0.9967929481909 -86.80420597917 0.0143559773696 177.60826045531
0.880000000000000 0.0143869859998 175.68850035270 0.9967192752028 -88.82225028431 0.0189748935508 1.9297760354111 0.0177145968640 -178.3281010454
                  0.9967192752028 -88.82225028431 0.0143878475976 175.63732050037 0.0177145967753 -178.3281010281 0.0189296423234 1.8694834702197
                  0.0189748935508 1.9297760354111 0.0177145967753 -178.3281010281 0.0143869865084 175.68850390416 0.9967192754055 -88.82225022262
                  0.0177145968640 -178.3281010454 0.0189296423234 1.8694834702197 0.9967192754055 -88.82225022262 0.0143878477984 175.63731711388
0.900000000000000 0.0144019593447 173.71982361367 0.9966461040822 -90.84028862262 0.0189867660465 -0.079214305447 0.0181254333722 179.61959512879
                  0.9966461040822 -90.84028862262 0.0144025091300 173.66688698500 0.0181254332831 179.61959515527 0.0189404637708 -0.135879301808
                  0.0189867660465 -0.079214305447 0.0181254332831 179.61959515527 0.0144019598794 173.71982717621 0.9966461043369 -90.84028856041
                  0.0181254333722 179.61959512879 0.0189404637708 -0.135879301808 0.9966461043369 -90.84028856041 0.0144025092601 173.66688350571
0.920000000000000 0.0143997175177 171.75142022534 0.9965734349521 -92.85832394456 0.0189751163982 -2.088498815636 0.0185358782352 177.56615065734
                  0.9965734349521 -92.85832394456 0.0143999417236 171.69697788196 0.0185358781464 177.56615069207 0.0189281016851 -2.141264996323
                  0.0189751163982 -2.088498815636 0.0185358781464 177.56615069207 0.0143997180757 171.75142377911 0.9965734352569 -92.85832388230
                  0.0185358782352 177.56615065734 0.0189281016851 -2.141264996323 0.9965734352569 -92.85832388230 0.0143999417802 171.69697435209
0.940000000000000 0.0143802545189 169.78330812478 0.9965012641472 -94.87635911160 0.0189399679716 -4.097914180926 0.0189458945820 175.51179496392
                  0.9965012641472 -94.87635911160 0.0143801454269 169.72760989301 0.0189458944943 175.51179500577 0.0188925716626 -4.146593044877
                  0.0189399679716 -4.097914180926 0.0189458944943 175.51179500577 0.0143802550973 169.78331165094 0.9965012644996 -94.87635904974
                  0.0189458945820 175.51179496392 0.0188925716626 -4.146593044877 0.9965012644996 -94.87635904974 0.0143801454090 169.72760635458
0.960000000000000 0.0143435846132 167.81551004118 0.9964295841832 -96.89439693929 0.0188813804825 -6.107310557364 0.0193554514427 173.45673671350
                  0.9964295841832 -96.89439693929 0.0143431403208 167.75880188939 0.0193554513567 173.45673676124 0.0188339209056 -6.151789115300
                  0.0188813804825 -6.107310557364 0.0193554513567 173.45673676124 0.0143435852088 167.81551352193 0.9964295845799 -96.89439687825
                  0.0193554514427 173.45673671350 0.0188339209056 -6.151789115300 0.9964295845799 -96.89439687825 0.0143431402289 167.75879838332
0.980000000000000 0.0142897424021 165.84805341468 0.9963583838956 -98.91244018099 0.0187994486089 -8.116552326858 0.0197645229338 171.40116462927
                  0.9963583838956 -98.91244018099 0.0142889665004 165.79057513703 0.0197645228500 171.40116468162 0.0187522275681 -8.156785465218
                  0.0187994486089 -8.116552326858 0.0197645228500 171.40116468162 0.0142897430117 165.84805683329 0.9963583843328 -98.91244012114
                  0.0197645229338 171.40116462927 0.0187522275681 -8.156785465218 0.9963583843328 -98.91244012114 0.0142889663370 165.79057170253
1.000000000000000 0.0142187828564 163.88097037564 0.9962876485948 -100.9304915129 0.0186943005803 -10.12551834372 0.0201730875026 169.34524867289
                  0.9962876485948 -100.9304915129 0.0142176840327 163.82295356664 0.0201730874216 169.34524872854 0.0186476000780 -10.16152100934
                  0.0186943005803 -10.12551834372 0.0201730874216 169.34524872854 0.0142187834767 163.88097371645 0.9962876490680 -100.9304914545
                  0.0201730875026 169.34524867289 0.0186476000780 -10.16152100934 0.9962876490680 -100.9304914545 0.0142176838013 163.82295024057
1.020000000000000 0.0141307813094 161.91429779439 0.9962173602335 -102.9485535202 0.0185660967803 -12.13410176221 0.0205811272430 167.28914145292
                  0.9962173602335 -102.9485535202 0.0141293728897 161.85596409621 0.0205811271652 167.28914151059 0.0185201764520 -12.16594115679
                  0.0185660967803 -12.13410176221 0.0205811271652 167.28914151059 0.0141307819370 161.91430104279 0.9962173607380 -102.9485534636
                  0.0205811272430 167.28914145292 0.0185201764520 -12.16594115679 0.9962173607380 -102.9485534636 0.0141293725952 161.85596091259
1.040000000000000 0.0140258334120 159.94807741166 0.9961474975850 -104.9666286848 0.0184150283871 -14.14220952359 0.0209886272900 165.23297975672
                  0.9961474975850 -104.9666286848 0.0140241328584 159.88963701474 0.0209886272157 165.23297981517 0.0183701236145 -14.16999746511
                  0.0184150283871 -14.14220952359 0.0209886272157 165.23297981517 0.0140258340436 159.94808055408 0.9961474981158 -104.9666286303
                  0.0209886272900 165.23297975672 0.0183701236145 -14.16999746511 0.9961474981158 -104.9666286303 0.0140241325069 159.88963400439
1.060000000000000 0.0139040550533 157.98235606082 0.9960780364292 -106.9847193738 0.0182413160719 -16.14976157009 0.0213955752954 163.17688612545
                  0.9960780364292 -106.9847193738 0.0139020834294 157.92400643713 0.0213955752249 163.17688618353 0.0181976367285 -16.17364714839
                  0.0182413160719 -16.14976157009 0.0213955752249 163.17688618353 0.0139040556857 157.98235908469 0.9960780369811 -106.9847193217
                  0.0213955752954 163.17688612545 0.0181976367285 -16.17364714839 0.9960780369811 -106.9847193217 0.0139020830277 157.92400362739
1.080000000000000 0.0137655822465 156.01718599426 0.9960089497453 -109.0028278296 0.0180452087679 -18.15668984254 0.0218019609850 161.12097041283
                  0.9960089497453 -109.0028278296 0.0137633636630 155.95911084193 0.0218019609184 161.12097046946 0.0180029385432 -18.17685246892
                  0.0180452087679 -18.15668984254 0.0218019609184 161.12097046946 0.0137655828764 156.01718888793 0.9960089503131 -109.0028277799
                  0.0218019609850 161.12097041283 0.0180029385432 -18.17685246892 0.9960089503131 -109.0028277799 0.0137633632184 155.95910825648
1.100000000000000 0.0136105709828 154.05262532876 0.9959402079089 -111.0209561601 0.0178269825201 -20.16293710843 0.0222077757936 159.06533128400
                  0.9959402079089 -111.0209561601 0.0136081320347 153.99499370611 0.0222077757311 159.06533133824 0.0177862787613 -20.17958003403
                  0.0178269825201 -20.16293710843 0.0222077757311 159.06533133824 0.0136105716073 154.05262808148 0.9959402084874 -111.0209561129
                  0.0222077757936 159.06533128400 0.0177862787613 -20.17958003403 0.9959402084874 -111.0209561129 0.0136081315552 153.99499136487